 Entering Gaussian System, Link 0=g16
 Initial command:
 /opt/g16/l1.exe "/home/jh-li/scratch/g16/Gau-1467509.inp" -scrdir="/home/jh-li/scratch/g16/"
 Entering Link 1 = /opt/g16/l1.exe PID=   1467512.
  
 Copyright (c) 1988-2019, Gaussian, Inc.  All Rights Reserved.
  
 This is part of the Gaussian(R) 16 program.  It is based on
 the Gaussian(R) 09 system (copyright 2009, Gaussian, Inc.),
 the Gaussian(R) 03 system (copyright 2003, Gaussian, Inc.),
 the Gaussian(R) 98 system (copyright 1998, Gaussian, Inc.),
 the Gaussian(R) 94 system (copyright 1995, Gaussian, Inc.),
 the Gaussian 92(TM) system (copyright 1992, Gaussian, Inc.),
 the Gaussian 90(TM) system (copyright 1990, Gaussian, Inc.),
 the Gaussian 88(TM) system (copyright 1988, Gaussian, Inc.),
 the Gaussian 86(TM) system (copyright 1986, Carnegie Mellon
 University), and the Gaussian 82(TM) system (copyright 1983,
 Carnegie Mellon University). Gaussian is a federally registered
 trademark of Gaussian, Inc.
  
 This software contains proprietary and confidential information,
 including trade secrets, belonging to Gaussian, Inc.
  
 This software is provided under written license and may be
 used, copied, transmitted, or stored only in accord with that
 written license.
  
 The following legend is applicable only to US Government
 contracts under FAR:
  
                    RESTRICTED RIGHTS LEGEND
  
 Use, reproduction and disclosure by the US Government is
 subject to restrictions as set forth in subparagraphs (a)
 and (c) of the Commercial Computer Software - Restricted
 Rights clause in FAR 52.227-19.
  
 Gaussian, Inc.
 340 Quinnipiac St., Bldg. 40, Wallingford CT 06492
  
  
 ---------------------------------------------------------------
 Warning -- This program may not be used in any manner that
 competes with the business of Gaussian, Inc. or will provide
 assistance to any competitor of Gaussian, Inc.  The licensee
 of this program is prohibited from giving any competitor of
 Gaussian, Inc. access to this program.  By using this program,
 the user acknowledges that Gaussian, Inc. is engaged in the
 business of creating and licensing software in the field of
 computational chemistry and represents and warrants to the
 licensee that it is not a competitor of Gaussian, Inc. and that
 it will not use this program in any manner prohibited above.
 ---------------------------------------------------------------
  

 Cite this work as:
 Gaussian 16, Revision C.01,
 M. J. Frisch, G. W. Trucks, H. B. Schlegel, G. E. Scuseria, 
 M. A. Robb, J. R. Cheeseman, G. Scalmani, V. Barone, 
 G. A. Petersson, H. Nakatsuji, X. Li, M. Caricato, A. V. Marenich, 
 J. Bloino, B. G. Janesko, R. Gomperts, B. Mennucci, H. P. Hratchian, 
 J. V. Ortiz, A. F. Izmaylov, J. L. Sonnenberg, D. Williams-Young, 
 F. Ding, F. Lipparini, F. Egidi, J. Goings, B. Peng, A. Petrone, 
 T. Henderson, D. Ranasinghe, V. G. Zakrzewski, J. Gao, N. Rega, 
 G. Zheng, W. Liang, M. Hada, M. Ehara, K. Toyota, R. Fukuda, 
 J. Hasegawa, M. Ishida, T. Nakajima, Y. Honda, O. Kitao, H. Nakai, 
 T. Vreven, K. Throssell, J. A. Montgomery, Jr., J. E. Peralta, 
 F. Ogliaro, M. J. Bearpark, J. J. Heyd, E. N. Brothers, K. N. Kudin, 
 V. N. Staroverov, T. A. Keith, R. Kobayashi, J. Normand, 
 K. Raghavachari, A. P. Rendell, J. C. Burant, S. S. Iyengar, 
 J. Tomasi, M. Cossi, J. M. Millam, M. Klene, C. Adamo, R. Cammi, 
 J. W. Ochterski, R. L. Martin, K. Morokuma, O. Farkas, 
 J. B. Foresman, and D. J. Fox, Gaussian, Inc., Wallingford CT, 2019.
 
 ******************************************
 Gaussian 16:  ES64L-G16RevC.01  3-Jul-2019
                10-Apr-2024 
 ******************************************
 %nproc=1
 Will use up to    1 processors via shared memory.
 %chk=H-anion-freq.chk
 ---------------------------------------------------
 #p external="python3 -u ../pes/h_anion_pes.py" freq
 ---------------------------------------------------
 1/10=4,18=10,30=1,38=1/1,3;
 2/12=2,17=6,18=5,40=1/2;
 3/11=9,25=1,30=1,41=9900000,43=2,71=2,140=1/1;
 4/20=17,22=2,24=3,113=1,114=1/2;
 6/7=2,8=2,9=2,10=2/1;
 7/8=1,25=1,44=-1/16;
 1/10=4,18=10,30=1/3;
 99//99;
 Leave Link    1 at Wed Apr 10 10:00:53 2024, MaxMem=           0 cpu:               0.0 elap:               0.0
 (Enter /opt/g16/l101.exe)
 ---
 H^-
 ---
 Symbolic Z-matrix:
 Charge = -1 Multiplicity = 1
 H
 
 ITRead=  0
 MicOpt= -1
 NAtoms=      1 NQM=        1 NQMF=       0 NMMI=      0 NMMIF=      0
                NMic=       0 NMicF=      0.
                    Isotopes and Nuclear Properties:
 (Nuclear quadrupole moments (NQMom) in fm**2, nuclear magnetic moments (NMagM)
  in nuclear magnetons)

  Atom         1
 IAtWgt=           1
 AtmWgt=   1.0078250
 NucSpn=           1
 AtZEff=  -0.0000000
 NQMom=    0.0000000
 NMagM=    2.7928460
 AtZNuc=   1.0000000
 Leave Link  101 at Wed Apr 10 10:00:54 2024, MaxMem=   104857600 cpu:               0.1 elap:               0.2
 (Enter /opt/g16/l103.exe)

 GradGradGradGradGradGradGradGradGradGradGradGradGradGradGradGradGradGrad
 Berny optimization.
 Initialization pass.
 Trust Radius=3.00D-01 FncErr=1.00D-07 GrdErr=1.00D-07 EigMax=2.50D+02 EigMin=1.00D-04
 Number of steps in this run=      2 maximum allowed number of steps=      2.
 GradGradGradGradGradGradGradGradGradGradGradGradGradGradGradGradGradGrad

 Leave Link  103 at Wed Apr 10 10:00:54 2024, MaxMem=   104857600 cpu:               0.0 elap:               0.0
 (Enter /opt/g16/l202.exe)
                          Input orientation:                          
 ---------------------------------------------------------------------
 Center     Atomic      Atomic             Coordinates (Angstroms)
 Number     Number       Type             X           Y           Z
 ---------------------------------------------------------------------
      1          1           0        0.000000    0.000000    0.000000
 ---------------------------------------------------------------------
 Stoichiometry    H(1-)
 Framework group  OH[O(H)]
 Deg. of freedom     0
 Full point group                 OH      NOp  48
 Largest Abelian subgroup         D2H     NOp   8
 Largest concise Abelian subgroup C1      NOp   1
                         Standard orientation:                         
 ---------------------------------------------------------------------
 Center     Atomic      Atomic             Coordinates (Angstroms)
 Number     Number       Type             X           Y           Z
 ---------------------------------------------------------------------
      1          1           0        0.000000    0.000000    0.000000
 ---------------------------------------------------------------------
 Leave Link  202 at Wed Apr 10 10:00:54 2024, MaxMem=   104857600 cpu:               0.0 elap:               0.0
 (Enter /opt/g16/l301.exe)
 Standard basis: STO-3G (5D, 7F)
 Ernie: Thresh=  0.10000D-02 Tol=  0.10000D-05 Strict=F.
 There are     1 symmetry adapted cartesian basis functions of AG  symmetry.
 There are     0 symmetry adapted cartesian basis functions of B1G symmetry.
 There are     0 symmetry adapted cartesian basis functions of B2G symmetry.
 There are     0 symmetry adapted cartesian basis functions of B3G symmetry.
 There are     0 symmetry adapted cartesian basis functions of AU  symmetry.
 There are     0 symmetry adapted cartesian basis functions of B1U symmetry.
 There are     0 symmetry adapted cartesian basis functions of B2U symmetry.
 There are     0 symmetry adapted cartesian basis functions of B3U symmetry.
 There are     1 symmetry adapted basis functions of AG  symmetry.
 There are     0 symmetry adapted basis functions of B1G symmetry.
 There are     0 symmetry adapted basis functions of B2G symmetry.
 There are     0 symmetry adapted basis functions of B3G symmetry.
 There are     0 symmetry adapted basis functions of AU  symmetry.
 There are     0 symmetry adapted basis functions of B1U symmetry.
 There are     0 symmetry adapted basis functions of B2U symmetry.
 There are     0 symmetry adapted basis functions of B3U symmetry.
     1 basis functions,     3 primitive gaussians,     1 cartesian basis functions
     1 alpha electrons        1 beta electrons
       nuclear repulsion energy         0.0000000000 Hartrees.
 IExCor=    0 DFT=F Ex=HF Corr=None ExCW=0 ScaHFX=  1.000000
 ScaDFX=  1.000000  1.000000  1.000000  1.000000 ScalE2=  1.000000  1.000000
 IRadAn=      5 IRanWt=     -1 IRanGd=            0 ICorTp=0 IEmpDi=  4
 NAtoms=    1 NActive=    1 NUniq=    1 SFac= 1.00D+00 NAtFMM=   60 NAOKFM=F Big=F
 Integral buffers will be    131072 words long.
 Raffenetti 1 integral format.
 Two-electron integral symmetry is turned on.
 Leave Link  301 at Wed Apr 10 10:00:54 2024, MaxMem=   104857600 cpu:               0.1 elap:               0.1
 (Enter /opt/g16/l402.exe)
 External calculation of energy, first and second derivatives.
 Running external command "python3 -u ../pes/h_anion_pes.py R"
         input file       "/home/jh-li/scratch/g16/Gau-1467512.EIn"
         output file      "/home/jh-li/scratch/g16/Gau-1467512.EOu"
         message file     "/home/jh-li/scratch/g16/Gau-1467512.EMs"
         fchk file        "/home/jh-li/scratch/g16/Gau-1467512.EFC"
         mat. el file     "/home/jh-li/scratch/g16/Gau-1467512.EUF"
 Recovered energy=  0.00000000000     dipole=      0.000000000000      0.000000000000      0.000000000000
 Energy=     0.00000000     NIter=   0.
 Dipole moment=       0.000000       0.000000       0.000000
 Leave Link  402 at Wed Apr 10 10:00:54 2024, MaxMem=   104857600 cpu:               0.1 elap:               0.2
 (Enter /opt/g16/l601.exe)
 Leave Link  601 at Wed Apr 10 10:00:54 2024, MaxMem=   104857600 cpu:               0.0 elap:               0.0
 (Enter /opt/g16/l716.exe)
 Dipole        = 0.00000000D+00 0.00000000D+00 0.00000000D+00
 Full mass-weighted force constant matrix:
 Low frequencies ---    0.0000    0.0000    0.0000
 Diagonal vibrational polarizability:
        0.0000000       0.0000000       0.0000000
 Harmonic frequencies (cm**-1), IR intensities (KM/Mole), Raman scattering
 activities (A**4/AMU), depolarization ratios for plane and unpolarized
 incident light, reduced masses (AMU), force constants (mDyne/A),
 and normal coordinates:

 -------------------
 - Thermochemistry -
 -------------------
 Temperature   298.150 Kelvin.  Pressure   1.00000 Atm.
 Atom     1 has atomic number  1 and mass   1.00783
 Molecular mass:     1.00783 amu.
 Zero-point vibrational energy          0.0 (Joules/Mol)
                                    0.00000 (Kcal/Mol)
 Vibrational temperatures: 
          (Kelvin)
 
 Zero-point correction=                           0.000000 (Hartree/Particle)
 Thermal correction to Energy=                    0.001416
 Thermal correction to Enthalpy=                  0.002360
 Thermal correction to Gibbs Free Energy=        -0.010000
 Sum of electronic and zero-point Energies=              0.000000
 Sum of electronic and thermal Energies=                 0.001416
 Sum of electronic and thermal Enthalpies=               0.002360
 Sum of electronic and thermal Free Energies=           -0.010000
 
                     E (Thermal)             CV                S
                      KCal/Mol        Cal/Mol-Kelvin    Cal/Mol-Kelvin
 Total                    0.889              2.981             26.014
 Electronic               0.000              0.000              0.000
 Translational            0.889              2.981             26.014
 Rotational               0.000              0.000              0.000
 Vibrational              0.000              0.000              0.000
                       Q            Log10(Q)             Ln(Q)
 Total Bot       0.397678D+05          4.599532         10.590813
 Total V=0       0.397678D+05          4.599532         10.590813
 Vib (Bot)       0.100000D+01          0.000000          0.000000
 Vib (V=0)       0.100000D+01          0.000000          0.000000
 Electronic      0.100000D+01          0.000000          0.000000
 Translational   0.397678D+05          4.599532         10.590813
 Rotational      0.100000D+01          0.000000          0.000000
 ***** Axes restored to original set *****
 -------------------------------------------------------------------
 Center     Atomic                   Forces (Hartrees/Bohr)
 Number     Number              X              Y              Z
 -------------------------------------------------------------------
      1        1          -0.000000000   -0.000000000   -0.000000000
 -------------------------------------------------------------------
 Cartesian Forces:  Max     0.000000000 RMS     0.000000000
 Z-matrix is all fixed cartesians, so copy forces.
 Force constants in Cartesian coordinates: 
                1             2             3 
      1  0.000000D+00
      2  0.000000D+00  0.000000D+00
      3  0.000000D+00  0.000000D+00  0.000000D+00
 Leave Link  716 at Wed Apr 10 10:00:54 2024, MaxMem=   104857600 cpu:               0.1 elap:               0.0
 (Enter /opt/g16/l103.exe)

 GradGradGradGradGradGradGradGradGradGradGradGradGradGradGradGradGradGrad
 Berny optimization.
 Search for a local minimum.
 Step number   1 out of a maximum of    2
 All quantities printed in internal units (Hartrees-Bohrs-Radians)
 Second derivative matrix not updated -- analytic derivatives used.
 The second derivative matrix:
                          X1        Y1        Z1
           X1           0.00000
           Y1           0.00000   0.00000
           Z1           0.00000   0.00000   0.00000
 ITU=  0
     Eigenvalues --- 
 Angle between quadratic step and forces=  90.00 degrees.
 ClnCor:  largest displacement from symmetrization is 0.00D+00 for atom     0.
 Linear search not attempted -- first point.
 ClnCor:  largest displacement from symmetrization is 0.00D+00 for atom     0.
 B after Tr=     0.000000    0.000000    0.000000
         Rot=    1.000000    0.000000    0.000000    0.000000 Ang=   0.00 deg.
 Variable       Old X    -DE/DX   Delta X   Delta X   Delta X     New X
                                 (Linear)    (Quad)   (Total)
    X1        0.00000  -0.00000   0.00000   0.00000   0.00000   0.00000
    Y1        0.00000  -0.00000   0.00000   0.00000   0.00000   0.00000
    Z1        0.00000  -0.00000   0.00000   0.00000   0.00000   0.00000
         Item               Value     Threshold  Converged?
 Maximum Force            0.000000     0.000450     YES
 RMS     Force            0.000000     0.000300     YES
 Maximum Displacement     0.000000     0.001800     YES
 RMS     Displacement     0.000000     0.001200     YES
 Predicted change in Energy=-0.000000D+00
 Optimization completed.
    -- Stationary point found.
 GradGradGradGradGradGradGradGradGradGradGradGradGradGradGradGradGradGrad

 Leave Link  103 at Wed Apr 10 10:00:54 2024, MaxMem=   104857600 cpu:               0.0 elap:               0.0
 (Enter /opt/g16/l9999.exe)
 Unable to Open any file for archive entry.
 1\1\GINC-DESKTOP-1D9QDE1\Freq\External='python3 -u ../pes/h_anion_pes.
 py'\ZDO\H1(1-)\JH-LI\10-Apr-2024\0\\#p external="python3 -u ../pes/h_a
 nion_pes.py" freq\\H^-\\-1,1\H,0.,0.,0.\\Version=ES64L-G16RevC.01\HF=0
 .\RMSD=0.000e+00\RMSF=0.000e+00\Thermal=0.0014163\ETot=0.0014163\HTot=
 0.0023605\GTot=-0.0099997\Dipole=0.,0.,0.\PG=OH [O(H1)]\NImag=0\\0.,0.
 ,0.,0.,0.,0.\\0.,0.,0.\\\@
 The archive entry for this job was punched.


 BE LIKE A POSTAGE STAMP.  STICK TO ONE THING UNTIL
 YOU GET THERE -- JOSH BILLINGS
 Job cpu time:       0 days  0 hours  0 minutes  0.5 seconds.
 Elapsed time:       0 days  0 hours  0 minutes  0.6 seconds.
 File lengths (MBytes):  RWF=      6 Int=      0 D2E=      0 Chk=      1 Scr=      1
 Normal termination of Gaussian 16 at Wed Apr 10 10:00:54 2024.
