 Entering Gaussian System, Link 0=g16
 Initial command:
 /opt/g16/l1.exe "/home/jh-li/scratch/g16/Gau-1160739.inp" -scrdir="/home/jh-li/scratch/g16/"
 Entering Link 1 = /opt/g16/l1.exe PID=   1160747.
  
 Copyright (c) 1988-2019, Gaussian, Inc.  All Rights Reserved.
  
 This is part of the Gaussian(R) 16 program.  It is based on
 the Gaussian(R) 09 system (copyright 2009, Gaussian, Inc.),
 the Gaussian(R) 03 system (copyright 2003, Gaussian, Inc.),
 the Gaussian(R) 98 system (copyright 1998, Gaussian, Inc.),
 the Gaussian(R) 94 system (copyright 1995, Gaussian, Inc.),
 the Gaussian 92(TM) system (copyright 1992, Gaussian, Inc.),
 the Gaussian 90(TM) system (copyright 1990, Gaussian, Inc.),
 the Gaussian 88(TM) system (copyright 1988, Gaussian, Inc.),
 the Gaussian 86(TM) system (copyright 1986, Carnegie Mellon
 University), and the Gaussian 82(TM) system (copyright 1983,
 Carnegie Mellon University). Gaussian is a federally registered
 trademark of Gaussian, Inc.
  
 This software contains proprietary and confidential information,
 including trade secrets, belonging to Gaussian, Inc.
  
 This software is provided under written license and may be
 used, copied, transmitted, or stored only in accord with that
 written license.
  
 The following legend is applicable only to US Government
 contracts under FAR:
  
                    RESTRICTED RIGHTS LEGEND
  
 Use, reproduction and disclosure by the US Government is
 subject to restrictions as set forth in subparagraphs (a)
 and (c) of the Commercial Computer Software - Restricted
 Rights clause in FAR 52.227-19.
  
 Gaussian, Inc.
 340 Quinnipiac St., Bldg. 40, Wallingford CT 06492
  
  
 ---------------------------------------------------------------
 Warning -- This program may not be used in any manner that
 competes with the business of Gaussian, Inc. or will provide
 assistance to any competitor of Gaussian, Inc.  The licensee
 of this program is prohibited from giving any competitor of
 Gaussian, Inc. access to this program.  By using this program,
 the user acknowledges that Gaussian, Inc. is engaged in the
 business of creating and licensing software in the field of
 computational chemistry and represents and warrants to the
 licensee that it is not a competitor of Gaussian, Inc. and that
 it will not use this program in any manner prohibited above.
 ---------------------------------------------------------------
  

 Cite this work as:
 Gaussian 16, Revision C.01,
 M. J. Frisch, G. W. Trucks, H. B. Schlegel, G. E. Scuseria, 
 M. A. Robb, J. R. Cheeseman, G. Scalmani, V. Barone, 
 G. A. Petersson, H. Nakatsuji, X. Li, M. Caricato, A. V. Marenich, 
 J. Bloino, B. G. Janesko, R. Gomperts, B. Mennucci, H. P. Hratchian, 
 J. V. Ortiz, A. F. Izmaylov, J. L. Sonnenberg, D. Williams-Young, 
 F. Ding, F. Lipparini, F. Egidi, J. Goings, B. Peng, A. Petrone, 
 T. Henderson, D. Ranasinghe, V. G. Zakrzewski, J. Gao, N. Rega, 
 G. Zheng, W. Liang, M. Hada, M. Ehara, K. Toyota, R. Fukuda, 
 J. Hasegawa, M. Ishida, T. Nakajima, Y. Honda, O. Kitao, H. Nakai, 
 T. Vreven, K. Throssell, J. A. Montgomery, Jr., J. E. Peralta, 
 F. Ogliaro, M. J. Bearpark, J. J. Heyd, E. N. Brothers, K. N. Kudin, 
 V. N. Staroverov, T. A. Keith, R. Kobayashi, J. Normand, 
 K. Raghavachari, A. P. Rendell, J. C. Burant, S. S. Iyengar, 
 J. Tomasi, M. Cossi, J. M. Millam, M. Klene, C. Adamo, R. Cammi, 
 J. W. Ochterski, R. L. Martin, K. Morokuma, O. Farkas, 
 J. B. Foresman, and D. J. Fox, Gaussian, Inc., Wallingford CT, 2019.
 
 ******************************************
 Gaussian 16:  ES64L-G16RevC.01  3-Jul-2019
                 9-Apr-2024 
 ******************************************
 %nproc=1
 Will use up to    1 processors via shared memory.
 %chk=min2-opt-freq.chk
 ------------------------------------------------------------
 #p external="python3 -u ../pes/h4n_anion_pes.py" opt=nomicro
 ------------------------------------------------------------
 1/18=20,19=15,26=1,38=1/1,3;
 2/9=110,12=2,17=6,18=5,40=1/2;
 3/11=9,25=1,30=1,41=9900000,43=2,71=1/1;
 4/20=17,22=1,24=3,113=1,114=1/2;
 6/7=2,8=2,9=2,10=2/1;
 7/44=-1/16;
 1/18=20,19=15,26=1/3(2);
 2/9=110/2;
 99//99;
 2/9=110/2;
 3/11=9,25=1,30=1,41=9900000,43=2,71=1/1;
 4/16=2,20=17,22=1,24=3,113=1,114=1/2;
 7/44=-1/16;
 1/18=20,19=15,26=1/3(-4);
 2/9=110/2;
 6/7=2,8=2,9=2,10=2/1;
 99/9=10/99;
 Leave Link    1 at Tue Apr  9 21:33:57 2024, MaxMem=           0 cpu:               0.0 elap:               0.0
 (Enter /opt/g16/l101.exe)
 ----------------------------------
 Minimum 2 in H2 + NH2 anion system
 ----------------------------------
 Symbolic Z-matrix:
 Charge = -1 Multiplicity = 1
 H                     0.51821   0.80549   0.39804 
 H                     0.51819  -0.80552   0.39799 
 H                    -0.14085   0.00003  -0.83591 
 H                     0.12051   0.       -2.72338 
 N                    -0.07312  0.         0.19885 
 
 Add virtual bond connecting atoms H4         and H3         Dist= 3.60D+00.
 ITRead=  0  0  0  0  0
 MicOpt= -1 -1 -1 -1 -1
 NAtoms=      5 NQM=        5 NQMF=       0 NMMI=      0 NMMIF=      0
                NMic=       0 NMicF=      0.
                    Isotopes and Nuclear Properties:
 (Nuclear quadrupole moments (NQMom) in fm**2, nuclear magnetic moments (NMagM)
  in nuclear magnetons)

  Atom         1           2           3           4           5
 IAtWgt=           1           1           1           1          14
 AtmWgt=   1.0078250   1.0078250   1.0078250   1.0078250  14.0030740
 NucSpn=           1           1           1           1           2
 AtZEff=  -0.0000000  -0.0000000  -0.0000000  -0.0000000  -0.0000000
 NQMom=    0.0000000   0.0000000   0.0000000   0.0000000   2.0440000
 NMagM=    2.7928460   2.7928460   2.7928460   2.7928460   0.4037610
 AtZNuc=   1.0000000   1.0000000   1.0000000   1.0000000   7.0000000
 Leave Link  101 at Tue Apr  9 21:33:57 2024, MaxMem=   104857600 cpu:               0.2 elap:               0.2
 (Enter /opt/g16/l103.exe)

 GradGradGradGradGradGradGradGradGradGradGradGradGradGradGradGradGradGrad
 Berny optimization.
 Initialization pass.
                           ----------------------------
                           !    Initial Parameters    !
                           ! (Angstroms and Degrees)  !
 --------------------------                            --------------------------
 ! Name  Definition              Value          Derivative Info.                !
 --------------------------------------------------------------------------------
 ! R1    R(1,5)                  1.0189         estimate D2E/DX2                !
 ! R2    R(2,5)                  1.0189         estimate D2E/DX2                !
 ! R3    R(3,4)                  1.9055         estimate D2E/DX2                !
 ! R4    R(3,5)                  1.037          estimate D2E/DX2                !
 ! A1    A(1,5,2)              104.4757         estimate D2E/DX2                !
 ! A2    A(1,5,3)              103.4717         estimate D2E/DX2                !
 ! A3    A(2,5,3)              103.4715         estimate D2E/DX2                !
 ! A4    L(4,3,5,2,-1)         172.387          estimate D2E/DX2                !
 ! A5    L(4,3,5,2,-2)         166.7149         estimate D2E/DX2                !
 ! D1    D(1,5,3,2)            108.7658         estimate D2E/DX2                !
 --------------------------------------------------------------------------------
 Trust Radius=3.00D-01 FncErr=1.00D-07 GrdErr=1.00D-07 EigMax=2.50D+02 EigMin=1.00D-04
 Number of steps in this run=     20 maximum allowed number of steps=    100.
 GradGradGradGradGradGradGradGradGradGradGradGradGradGradGradGradGradGrad

 Leave Link  103 at Tue Apr  9 21:33:57 2024, MaxMem=   104857600 cpu:               0.0 elap:               0.0
 (Enter /opt/g16/l202.exe)
                          Input orientation:                          
 ---------------------------------------------------------------------
 Center     Atomic      Atomic             Coordinates (Angstroms)
 Number     Number       Type             X           Y           Z
 ---------------------------------------------------------------------
      1          1           0        0.518214    0.805492    0.398036
      2          1           0        0.518194   -0.805518    0.397994
      3          1           0       -0.140853    0.000025   -0.835908
      4          1           0        0.120513    0.000001   -2.723383
      5          7           0       -0.073118   -0.000000    0.198848
 ---------------------------------------------------------------------
                    Distance matrix (angstroms):
                    1          2          3          4          5
     1  H    0.000000
     2  H    1.611010   0.000000
     3  H    1.614239   1.614236   0.000000
     4  H    3.248113   3.248076   1.905484   0.000000
     5  N    1.018905   1.018905   1.036971   2.928638   0.000000
 Stoichiometry    H4N(1-)
 Framework group  C1[X(H4N)]
 Deg. of freedom     9
 Full point group                 C1      NOp   1
 Largest Abelian subgroup         C1      NOp   1
 Largest concise Abelian subgroup C1      NOp   1
                         Standard orientation:                         
 ---------------------------------------------------------------------
 Center     Atomic      Atomic             Coordinates (Angstroms)
 Number     Number       Type             X           Y           Z
 ---------------------------------------------------------------------
      1          1           0        0.532276   -0.805492    0.461559
      2          1           0        0.532233    0.805518    0.461539
      3          1           0       -0.714920   -0.000025   -0.172074
      4          1           0       -2.596640   -0.000001    0.127931
      5          7           0        0.321007    0.000000   -0.125565
 ---------------------------------------------------------------------
 Rotational constants (GHZ):         258.0309030          52.0857467          48.7822781
 Leave Link  202 at Tue Apr  9 21:33:57 2024, MaxMem=   104857600 cpu:               0.0 elap:               0.0
 (Enter /opt/g16/l301.exe)
 Standard basis: STO-3G (5D, 7F)
 Ernie: Thresh=  0.10000D-02 Tol=  0.10000D-05 Strict=F.
 There are     9 symmetry adapted cartesian basis functions of A   symmetry.
 There are     9 symmetry adapted basis functions of A   symmetry.
     9 basis functions,    27 primitive gaussians,     9 cartesian basis functions
     6 alpha electrons        6 beta electrons
       nuclear repulsion energy        13.6956961972 Hartrees.
 IExCor=    0 DFT=F Ex=HF Corr=None ExCW=0 ScaHFX=  1.000000
 ScaDFX=  1.000000  1.000000  1.000000  1.000000 ScalE2=  1.000000  1.000000
 IRadAn=      5 IRanWt=     -1 IRanGd=            0 ICorTp=0 IEmpDi=  4
 NAtoms=    5 NActive=    5 NUniq=    5 SFac= 1.00D+00 NAtFMM=   60 NAOKFM=F Big=F
 Integral buffers will be    131072 words long.
 Raffenetti 1 integral format.
 Two-electron integral symmetry is turned on.
 Leave Link  301 at Tue Apr  9 21:33:57 2024, MaxMem=   104857600 cpu:               0.0 elap:               0.0
 (Enter /opt/g16/l402.exe)
 External calculation of energy and first derivatives.
 Running external command "python3 -u ../pes/h4n_anion_pes.py R"
         input file       "/home/jh-li/scratch/g16/Gau-1160747.EIn"
         output file      "/home/jh-li/scratch/g16/Gau-1160747.EOu"
         message file     "/home/jh-li/scratch/g16/Gau-1160747.EMs"
         fchk file        "/home/jh-li/scratch/g16/Gau-1160747.EFC"
         mat. el file     "/home/jh-li/scratch/g16/Gau-1160747.EUF"
 initialization done
 Recovered energy= -57.0211464573     dipole=      0.000000000000      0.000000000000      0.000000000000
 Energy=    -57.0211465     NIter=   0.
 Dipole moment=       0.000000       0.000000       0.000000
 Leave Link  402 at Tue Apr  9 21:33:58 2024, MaxMem=   104857600 cpu:               0.0 elap:               0.2
 (Enter /opt/g16/l601.exe)
 Leave Link  601 at Tue Apr  9 21:33:58 2024, MaxMem=   104857600 cpu:               0.0 elap:               0.0
 (Enter /opt/g16/l716.exe)
 Dipole        = 0.00000000D+00 0.00000000D+00 0.00000000D+00
 ***** Axes restored to original set *****
 -------------------------------------------------------------------
 Center     Atomic                   Forces (Hartrees/Bohr)
 Number     Number              X              Y              Z
 -------------------------------------------------------------------
      1        1          -0.000047136   -0.000025171   -0.000069089
      2        1          -0.000047204    0.000025186   -0.000069087
      3        1           0.000036564   -0.000000332    0.000034827
      4        1           0.000010057    0.000000117   -0.000023701
      5        7           0.000046980    0.000000200    0.000132392
 -------------------------------------------------------------------
 Cartesian Forces:  Max     0.000132392 RMS     0.000050472
 Leave Link  716 at Tue Apr  9 21:33:58 2024, MaxMem=   104857600 cpu:               0.0 elap:               0.0
 (Enter /opt/g16/l103.exe)

 GradGradGradGradGradGradGradGradGradGradGradGradGradGradGradGradGradGrad
 Berny optimization.
 FormGI is forming the generalized inverse of G from B-inverse, IUseBI=4.
 Internal  Forces:  Max     0.000101865 RMS     0.000056616
 Search for a local minimum.
 Step number   1 out of a maximum of   20
 All quantities printed in internal units (Hartrees-Bohrs-Radians)
 RMS Force = .56616D-04 SwitMx=.10000D-02 MixMth= 2
 Mixed Optimization -- En-DIIS/RFO-DIIS
 Second derivative matrix not updated -- first step.
 The second derivative matrix:
                          R1        R2        R3        R4        A1
           R1           0.44513
           R2           0.00000   0.44513
           R3           0.00000   0.00000   0.03051
           R4           0.00000   0.00000   0.00000   0.41737
           A1           0.00000   0.00000   0.00000   0.00000   0.16000
           A2           0.00000   0.00000   0.00000   0.00000   0.00000
           A3           0.00000   0.00000   0.00000   0.00000   0.00000
           A4           0.00000   0.00000   0.00000   0.00000   0.00000
           A5           0.00000   0.00000   0.00000   0.00000   0.00000
           D1           0.00000   0.00000   0.00000   0.00000   0.00000
                          A2        A3        A4        A5        D1
           A2           0.16000
           A3           0.00000   0.16000
           A4           0.00000   0.00000   0.00539
           A5           0.00000   0.00000   0.00000   0.00539
           D1           0.00000   0.00000   0.00000   0.00000   0.00539
 ITU=  0
     Eigenvalues ---    0.00539   0.00539   0.03051   0.07001   0.16000
     Eigenvalues ---    0.16000   0.41737   0.44513   0.44513
 RFO step:  Lambda=-2.94103224D-07 EMin= 5.39327838D-03
 Linear search not attempted -- first point.
 Iteration  1 RMS(Cart)=  0.00215780 RMS(Int)=  0.00000522
 Iteration  2 RMS(Cart)=  0.00000591 RMS(Int)=  0.00000012
 Iteration  3 RMS(Cart)=  0.00000000 RMS(Int)=  0.00000012
 ITry= 1 IFail=0 DXMaxC= 4.17D-03 DCOld= 1.00D+10 DXMaxT= 3.00D-01 DXLimC= 3.00D+00 Rises=F
 Variable       Old X    -DE/DX   Delta X   Delta X   Delta X     New X
                                 (Linear)    (Quad)   (Total)
    R1        1.92545  -0.00006   0.00000  -0.00014  -0.00014   1.92531
    R2        1.92545  -0.00006   0.00000  -0.00014  -0.00014   1.92532
    R3        3.60084   0.00003   0.00000   0.00086   0.00086   3.60170
    R4        1.95959  -0.00001   0.00000  -0.00003  -0.00003   1.95956
    A1        1.82344   0.00005   0.00000   0.00026   0.00026   1.82370
    A2        1.80592  -0.00010   0.00000  -0.00065  -0.00065   1.80528
    A3        1.80592  -0.00010   0.00000  -0.00066  -0.00066   1.80526
    A4        3.00872  -0.00002   0.00000  -0.00363  -0.00363   3.00509
    A5        2.90972  -0.00001   0.00000  -0.00261  -0.00261   2.90711
    D1        1.89832  -0.00001   0.00000  -0.00016  -0.00015   1.89817
         Item               Value     Threshold  Converged?
 Maximum Force            0.000102     0.000450     YES
 RMS     Force            0.000057     0.000300     YES
 Maximum Displacement     0.004172     0.001800     NO 
 RMS     Displacement     0.002160     0.001200     NO 
 Predicted change in Energy=-1.470456D-07
 GradGradGradGradGradGradGradGradGradGradGradGradGradGradGradGradGradGrad

 Leave Link  103 at Tue Apr  9 21:33:58 2024, MaxMem=   104857600 cpu:               0.0 elap:               0.0
 (Enter /opt/g16/l202.exe)
                          Input orientation:                          
 ---------------------------------------------------------------------
 Center     Atomic      Atomic             Coordinates (Angstroms)
 Number     Number       Type             X           Y           Z
 ---------------------------------------------------------------------
      1          1           0        0.518563    0.805469    0.397292
      2          1           0        0.518774   -0.805588    0.396293
      3          1           0       -0.143061    0.000608   -0.835050
      4          1           0        0.121814   -0.000475   -2.722492
      5          7           0       -0.073139   -0.000014    0.199544
 ---------------------------------------------------------------------
                    Distance matrix (angstroms):
                    1          2          3          4          5
     1  H    0.000000
     2  H    1.611057   0.000000
     3  H    1.613758   1.613748   0.000000
     4  H    3.246538   3.245397   1.905937   0.000000
     5  N    1.018832   1.018833   1.036955   2.928533   0.000000
 Stoichiometry    H4N(1-)
 Framework group  C1[X(H4N)]
 Deg. of freedom     9
 Full point group                 C1      NOp   1
 RotChk:  IX=0 Diff= 9.99D-04
 Largest Abelian subgroup         C1      NOp   1
 Largest concise Abelian subgroup C1      NOp   1
                         Standard orientation:                         
 ---------------------------------------------------------------------
 Center     Atomic      Atomic             Coordinates (Angstroms)
 Number     Number       Type             X           Y           Z
 ---------------------------------------------------------------------
      1          1           0        0.531150   -0.805110    0.462593
      2          1           0        0.529820    0.805947    0.461930
      3          1           0       -0.714420   -0.000861   -0.174553
      4          1           0       -2.596152   -0.000001    0.128236
      5          7           0        0.321372    0.000004   -0.125458
 ---------------------------------------------------------------------
 Rotational constants (GHZ):         257.7623480          52.0988728          48.8026766
 Leave Link  202 at Tue Apr  9 21:33:58 2024, MaxMem=   104857600 cpu:               0.0 elap:               0.0
 (Enter /opt/g16/l301.exe)
 Standard basis: STO-3G (5D, 7F)
 Ernie: Thresh=  0.10000D-02 Tol=  0.10000D-05 Strict=F.
 There are     9 symmetry adapted cartesian basis functions of A   symmetry.
 There are     9 symmetry adapted basis functions of A   symmetry.
     9 basis functions,    27 primitive gaussians,     9 cartesian basis functions
     6 alpha electrons        6 beta electrons
       nuclear repulsion energy        13.6966470961 Hartrees.
 IExCor=    0 DFT=F Ex=HF Corr=None ExCW=0 ScaHFX=  1.000000
 ScaDFX=  1.000000  1.000000  1.000000  1.000000 ScalE2=  1.000000  1.000000
 IRadAn=      5 IRanWt=     -1 IRanGd=            0 ICorTp=0 IEmpDi=  4
 NAtoms=    5 NActive=    5 NUniq=    5 SFac= 1.00D+00 NAtFMM=   60 NAOKFM=F Big=F
 Integral buffers will be    131072 words long.
 Raffenetti 1 integral format.
 Two-electron integral symmetry is turned on.
 Leave Link  301 at Tue Apr  9 21:33:58 2024, MaxMem=   104857600 cpu:               0.0 elap:               0.0
 (Enter /opt/g16/l402.exe)
 External calculation of energy and first derivatives.
 Running external command "python3 -u ../pes/h4n_anion_pes.py R"
         input file       "/home/jh-li/scratch/g16/Gau-1160747.EIn"
         output file      "/home/jh-li/scratch/g16/Gau-1160747.EOu"
         message file     "/home/jh-li/scratch/g16/Gau-1160747.EMs"
         fchk file        "/home/jh-li/scratch/g16/Gau-1160747.EFC"
         mat. el file     "/home/jh-li/scratch/g16/Gau-1160747.EUF"
 initialization done
 Recovered energy= -57.0211465409     dipole=      0.000000000000      0.000000000000      0.000000000000
 Energy=    -57.0211465     NIter=   0.
 Dipole moment=       0.000000       0.000000       0.000000
 Leave Link  402 at Tue Apr  9 21:33:58 2024, MaxMem=   104857600 cpu:               0.0 elap:               0.2
 (Enter /opt/g16/l716.exe)
 Dipole        = 0.00000000D+00 0.00000000D+00 0.00000000D+00
 ***** Axes restored to original set *****
 -------------------------------------------------------------------
 Center     Atomic                   Forces (Hartrees/Bohr)
 Number     Number              X              Y              Z
 -------------------------------------------------------------------
      1        1           0.000009264   -0.000001372   -0.000016875
      2        1           0.000004357    0.000003889   -0.000028754
      3        1           0.000051660   -0.000021628    0.000038423
      4        1          -0.000005938    0.000004496   -0.000031084
      5        7          -0.000060126    0.000014626    0.000043642
 -------------------------------------------------------------------
 Cartesian Forces:  Max     0.000060126 RMS     0.000028985
 Leave Link  716 at Tue Apr  9 21:33:58 2024, MaxMem=   104857600 cpu:               0.0 elap:               0.0
 (Enter /opt/g16/l103.exe)

 GradGradGradGradGradGradGradGradGradGradGradGradGradGradGradGradGradGrad
 Berny optimization.
 Using GEDIIS/GDIIS optimizer.
 FormGI is forming the generalized inverse of G from B-inverse, IUseBI=4.
 Internal  Forces:  Max     0.000052043 RMS     0.000025859
 Search for a local minimum.
 Step number   2 out of a maximum of   20
 All quantities printed in internal units (Hartrees-Bohrs-Radians)
 RMS Force = .25859D-04 SwitMx=.10000D-02 MixMth= 2
 Mixed Optimization -- En-DIIS/RFO-DIIS
 Swapping is turned off.
 Update second derivatives using D2CorX and points    1    2
 DE= -8.36D-08 DEPred=-1.47D-07 R= 5.69D-01
 Trust test= 5.69D-01 RLast= 4.66D-03 DXMaxT set to 3.00D-01
 The second derivative matrix:
                          R1        R2        R3        R4        A1
           R1           0.44315
           R2          -0.00328   0.44075
           R3           0.00631   0.00612   0.02826
           R4          -0.00176  -0.00185   0.00120   0.41690
           A1           0.00051   0.00151  -0.00435   0.00113   0.16029
           A2          -0.00977  -0.01110   0.01014  -0.00350   0.00573
           A3          -0.01322  -0.01413   0.01005  -0.00383   0.00831
           A4           0.00546   0.00422   0.00252  -0.00007  -0.00446
           A5           0.00096   0.00046   0.00157  -0.00029  -0.00095
           D1          -0.00213  -0.00186  -0.00009  -0.00020   0.00160
                          A2        A3        A4        A5        D1
           A2           0.13644
           A3          -0.02755   0.12932
           A4           0.00353   0.00068   0.01256
           A5          -0.00071  -0.00191   0.00252   0.00613
           D1          -0.00243  -0.00188  -0.00180  -0.00075   0.00575
 ITU=  0  0
     Eigenvalues ---    0.00510   0.01256   0.02533   0.06712   0.11128
     Eigenvalues ---    0.16079   0.41680   0.44055   0.44551
 En-DIIS/RFO-DIIS/Sim-DIIS IScMMF=       -3 using points:     2    1
 RFO step:  Lambda=-2.13415208D-07.
 NNeg= 0 NGDIIS= 2 SimSw=  2.50D-03 Rises=F DC= -8.36D-08 SmlDif=  1.00D-05
 NRisDI= 0 DoIntr=F SqrtH=F CThrHd= 10.0 CDAdj=  3.0
 RMS Error=  0.1094649928D-02 NUsed= 2 OKEnD=F EnDIS=F
 InvSVX:  RCond= 2.44D-05 Info=           0 Equed=N FErr=  2.13D-15 BErr=  4.34D-17
 DidBck=T Rises=F RFO-DIIS coefs:    0.68068    0.31932
 Iteration  1 RMS(Cart)=  0.00146151 RMS(Int)=  0.00000145
 Iteration  2 RMS(Cart)=  0.00000150 RMS(Int)=  0.00000012
 Iteration  3 RMS(Cart)=  0.00000000 RMS(Int)=  0.00000012
 ITry= 1 IFail=0 DXMaxC= 2.26D-03 DCOld= 1.00D+10 DXMaxT= 3.00D-01 DXLimC= 3.00D+00 Rises=F
 Variable       Old X    -DE/DX   Delta X   Delta X   Delta X     New X
                                 (Linear)    (Quad)   (Total)
    R1        1.92531   0.00000   0.00004  -0.00014  -0.00009   1.92522
    R2        1.92532  -0.00001   0.00004  -0.00015  -0.00011   1.92521
    R3        3.60170   0.00003  -0.00027   0.00171   0.00143   3.60313
    R4        1.95956  -0.00001   0.00001  -0.00005  -0.00004   1.95952
    A1        1.82370   0.00001  -0.00008   0.00018   0.00009   1.82380
    A2        1.80528  -0.00003   0.00021  -0.00085  -0.00065   1.80463
    A3        1.80526  -0.00005   0.00021  -0.00097  -0.00076   1.80450
    A4        3.00509   0.00004   0.00116   0.00175   0.00291   3.00801
    A5        2.90711   0.00001   0.00083  -0.00136  -0.00053   2.90658
    D1        1.89817  -0.00002   0.00005  -0.00042  -0.00037   1.89780
         Item               Value     Threshold  Converged?
 Maximum Force            0.000052     0.000450     YES
 RMS     Force            0.000026     0.000300     YES
 Maximum Displacement     0.002263     0.001800     NO 
 RMS     Displacement     0.001461     0.001200     NO 
 Predicted change in Energy=-1.066933D-07
 GradGradGradGradGradGradGradGradGradGradGradGradGradGradGradGradGradGrad

 Leave Link  103 at Tue Apr  9 21:33:58 2024, MaxMem=   104857600 cpu:               0.0 elap:               0.0
 (Enter /opt/g16/l202.exe)
                          Input orientation:                          
 ---------------------------------------------------------------------
 Center     Atomic      Atomic             Coordinates (Angstroms)
 Number     Number       Type             X           Y           Z
 ---------------------------------------------------------------------
      1          1           0        0.518604    0.805558    0.396510
      2          1           0        0.518333   -0.805474    0.397369
      3          1           0       -0.142143   -0.000589   -0.834851
      4          1           0        0.121457    0.000474   -2.723238
      5          7           0       -0.073300    0.000032    0.199797
 ---------------------------------------------------------------------
                    Distance matrix (angstroms):
                    1          2          3          4          5
     1  H    0.000000
     2  H    1.611032   0.000000
     3  H    1.613291   1.613207   0.000000
     4  H    3.246338   3.247346   1.906696   0.000000
     5  N    1.018783   1.018777   1.036936   2.929515   0.000000
 Stoichiometry    H4N(1-)
 Framework group  C1[X(H4N)]
 Deg. of freedom     9
 Full point group                 C1      NOp   1
 RotChk:  IX=3 Diff= 1.69D-03
 Largest Abelian subgroup         C1      NOp   1
 Largest concise Abelian subgroup C1      NOp   1
                         Standard orientation:                         
 ---------------------------------------------------------------------
 Center     Atomic      Atomic             Coordinates (Angstroms)
 Number     Number       Type             X           Y           Z
 ---------------------------------------------------------------------
      1          1           0        0.529878   -0.805904    0.461875
      2          1           0        0.531040    0.805128    0.462501
      3          1           0       -0.714326    0.000842   -0.173600
      4          1           0       -2.597049   -0.000034    0.127797
      5          7           0        0.321494   -0.000005   -0.125510
 ---------------------------------------------------------------------
 Rotational constants (GHZ):         257.8255559          52.0722448          48.7774326
 Leave Link  202 at Tue Apr  9 21:33:58 2024, MaxMem=   104857600 cpu:               0.0 elap:               0.0
 (Enter /opt/g16/l301.exe)
 Standard basis: STO-3G (5D, 7F)
 Ernie: Thresh=  0.10000D-02 Tol=  0.10000D-05 Strict=F.
 There are     9 symmetry adapted cartesian basis functions of A   symmetry.
 There are     9 symmetry adapted basis functions of A   symmetry.
     9 basis functions,    27 primitive gaussians,     9 cartesian basis functions
     6 alpha electrons        6 beta electrons
       nuclear repulsion energy        13.6966772744 Hartrees.
 IExCor=    0 DFT=F Ex=HF Corr=None ExCW=0 ScaHFX=  1.000000
 ScaDFX=  1.000000  1.000000  1.000000  1.000000 ScalE2=  1.000000  1.000000
 IRadAn=      5 IRanWt=     -1 IRanGd=            0 ICorTp=0 IEmpDi=  4
 NAtoms=    5 NActive=    5 NUniq=    5 SFac= 1.00D+00 NAtFMM=   60 NAOKFM=F Big=F
 Integral buffers will be    131072 words long.
 Raffenetti 1 integral format.
 Two-electron integral symmetry is turned on.
 Leave Link  301 at Tue Apr  9 21:33:58 2024, MaxMem=   104857600 cpu:               0.1 elap:               0.0
 (Enter /opt/g16/l402.exe)
 External calculation of energy and first derivatives.
 Running external command "python3 -u ../pes/h4n_anion_pes.py R"
         input file       "/home/jh-li/scratch/g16/Gau-1160747.EIn"
         output file      "/home/jh-li/scratch/g16/Gau-1160747.EOu"
         message file     "/home/jh-li/scratch/g16/Gau-1160747.EMs"
         fchk file        "/home/jh-li/scratch/g16/Gau-1160747.EFC"
         mat. el file     "/home/jh-li/scratch/g16/Gau-1160747.EUF"
 initialization done
 Recovered energy= -57.0211465682     dipole=      0.000000000000      0.000000000000      0.000000000000
 Energy=    -57.0211466     NIter=   0.
 Dipole moment=       0.000000       0.000000       0.000000
 Leave Link  402 at Tue Apr  9 21:33:58 2024, MaxMem=   104857600 cpu:               0.0 elap:               0.2
 (Enter /opt/g16/l716.exe)
 Dipole        = 0.00000000D+00 0.00000000D+00 0.00000000D+00
 ***** Axes restored to original set *****
 -------------------------------------------------------------------
 Center     Atomic                   Forces (Hartrees/Bohr)
 Number     Number              X              Y              Z
 -------------------------------------------------------------------
      1        1           0.000044324    0.000028893    0.000031942
      2        1           0.000053125   -0.000035472    0.000055398
      3        1          -0.000045941    0.000030863   -0.000000408
      4        1           0.000005342   -0.000004872   -0.000015551
      5        7          -0.000057634   -0.000019421   -0.000066023
 -------------------------------------------------------------------
 Cartesian Forces:  Max     0.000066023 RMS     0.000038630
 Leave Link  716 at Tue Apr  9 21:33:58 2024, MaxMem=   104857600 cpu:               0.0 elap:               0.0
 (Enter /opt/g16/l103.exe)

 GradGradGradGradGradGradGradGradGradGradGradGradGradGradGradGradGradGrad
 Berny optimization.
 Using GEDIIS/GDIIS optimizer.
 FormGI is forming the generalized inverse of G from B-inverse, IUseBI=4.
 Internal  Forces:  Max     0.000072341 RMS     0.000040498
 Search for a local minimum.
 Step number   3 out of a maximum of   20
 All quantities printed in internal units (Hartrees-Bohrs-Radians)
 RMS Force = .40498D-04 SwitMx=.10000D-02 MixMth= 2
 Mixed Optimization -- En-DIIS/RFO-DIIS
 Swapping is turned off.
 Update second derivatives using D2CorX and points    1    2    3
 DE= -2.73D-08 DEPred=-1.07D-07 R= 2.56D-01
 Trust test= 2.56D-01 RLast= 3.46D-03 DXMaxT set to 3.00D-01
 The second derivative matrix:
                          R1        R2        R3        R4        A1
           R1           0.46199
           R2           0.02022   0.46999
           R3           0.00913   0.00910   0.02507
           R4           0.00525   0.00687   0.00205   0.41949
           A1          -0.01626  -0.01911  -0.00487  -0.00500   0.17411
           A2           0.00398   0.00689   0.01777   0.00192  -0.00959
           A3           0.01337   0.01968   0.01826   0.00630  -0.01769
           A4          -0.00181  -0.00473   0.00219  -0.00273   0.00159
           A5           0.00177   0.00152   0.00195   0.00003  -0.00182
           D1           0.00274   0.00404  -0.00056   0.00155  -0.00207
                          A2        A3        A4        A5        D1
           A2           0.13791
           A3          -0.01464   0.16192
           A4          -0.00295  -0.01047   0.01520
           A5          -0.00052  -0.00106   0.00215   0.00614
           D1           0.00298   0.00641  -0.00342  -0.00045   0.00661
 ITU=  0  0  0
     Eigenvalues ---    0.00551   0.01184   0.02244   0.06849   0.14935
     Eigenvalues ---    0.17371   0.41846   0.44541   0.49178
 En-DIIS/RFO-DIIS/Sim-DIIS IScMMF=       -3 using points:     3    2    1
 RFO step:  Lambda=-8.11952098D-08.
 NNeg= 0 NGDIIS= 3 SimSw=  2.50D-03 Rises=F DC= -2.73D-08 SmlDif=  1.00D-05
 NRisDI= 0 DoIntr=F SqrtH=F CThrHd= 10.0 CDAdj=  3.0
 RMS Error=  0.5003554417D-03 NUsed= 3 OKEnD=F EnDIS=F
 InvSVX:  RCond= 4.39D-06 Info=           0 Equed=N FErr=  1.91D-15 BErr=  9.13D-17
 DidBck=T Rises=F RFO-DIIS coefs:    0.70031    0.37206   -0.07236
 Iteration  1 RMS(Cart)=  0.00067084 RMS(Int)=  0.00000035
 Iteration  2 RMS(Cart)=  0.00000037 RMS(Int)=  0.00000001
 ITry= 1 IFail=0 DXMaxC= 1.18D-03 DCOld= 1.00D+10 DXMaxT= 3.00D-01 DXLimC= 3.00D+00 Rises=F
 Variable       Old X    -DE/DX   Delta X   Delta X   Delta X     New X
                                 (Linear)    (Quad)   (Total)
    R1        1.92522   0.00005   0.00002   0.00006   0.00008   1.92530
    R2        1.92521   0.00007   0.00002   0.00008   0.00010   1.92531
    R3        3.60313   0.00002  -0.00037   0.00066   0.00029   3.60343
    R4        1.95952   0.00002   0.00001   0.00002   0.00003   1.95955
    A1        1.82380  -0.00003  -0.00001  -0.00015  -0.00016   1.82364
    A2        1.80463   0.00003   0.00015   0.00002   0.00016   1.80479
    A3        1.80450   0.00007   0.00018   0.00011   0.00029   1.80479
    A4        3.00801  -0.00002  -0.00114  -0.00018  -0.00132   3.00669
    A5        2.90658   0.00000  -0.00003   0.00064   0.00061   2.90719
    D1        1.89780  -0.00000   0.00010  -0.00012  -0.00002   1.89778
         Item               Value     Threshold  Converged?
 Maximum Force            0.000072     0.000450     YES
 RMS     Force            0.000040     0.000300     YES
 Maximum Displacement     0.001184     0.001800     YES
 RMS     Displacement     0.000671     0.001200     YES
 Predicted change in Energy=-4.054876D-08
 Optimization completed.
    -- Stationary point found.
                           ----------------------------
                           !   Optimized Parameters   !
                           ! (Angstroms and Degrees)  !
 --------------------------                            --------------------------
 ! Name  Definition              Value          Derivative Info.                !
 --------------------------------------------------------------------------------
 ! R1    R(1,5)                  1.0188         -DE/DX =    0.0001              !
 ! R2    R(2,5)                  1.0188         -DE/DX =    0.0001              !
 ! R3    R(3,4)                  1.9067         -DE/DX =    0.0                 !
 ! R4    R(3,5)                  1.0369         -DE/DX =    0.0                 !
 ! A1    A(1,5,2)              104.4959         -DE/DX =    0.0                 !
 ! A2    A(1,5,3)              103.3976         -DE/DX =    0.0                 !
 ! A3    A(2,5,3)              103.3904         -DE/DX =    0.0001              !
 ! A4    L(4,3,5,2,-1)         172.346          -DE/DX =    0.0                 !
 ! A5    L(4,3,5,2,-2)         166.5348         -DE/DX =    0.0                 !
 ! D1    D(1,5,3,2)            108.7359         -DE/DX =    0.0                 !
 --------------------------------------------------------------------------------
 Largest change from initial coordinates is atom    1       0.000 Angstoms.
 GradGradGradGradGradGradGradGradGradGradGradGradGradGradGradGradGradGrad

 Leave Link  103 at Tue Apr  9 21:33:58 2024, MaxMem=   104857600 cpu:               0.0 elap:               0.0
 (Enter /opt/g16/l202.exe)
                          Input orientation:                          
 ---------------------------------------------------------------------
 Center     Atomic      Atomic             Coordinates (Angstroms)
 Number     Number       Type             X           Y           Z
 ---------------------------------------------------------------------
      1          1           0        0.518604    0.805558    0.396510
      2          1           0        0.518333   -0.805474    0.397369
      3          1           0       -0.142143   -0.000589   -0.834851
      4          1           0        0.121457    0.000474   -2.723238
      5          7           0       -0.073300    0.000032    0.199797
 ---------------------------------------------------------------------
                    Distance matrix (angstroms):
                    1          2          3          4          5
     1  H    0.000000
     2  H    1.611032   0.000000
     3  H    1.613291   1.613207   0.000000
     4  H    3.246338   3.247346   1.906696   0.000000
     5  N    1.018783   1.018777   1.036936   2.929515   0.000000
 Stoichiometry    H4N(1-)
 Framework group  C1[X(H4N)]
 Deg. of freedom     9
 Full point group                 C1      NOp   1
 RotChk:  IX=3 Diff= 3.95D-16
 Largest Abelian subgroup         C1      NOp   1
 Largest concise Abelian subgroup C1      NOp   1
                         Standard orientation:                         
 ---------------------------------------------------------------------
 Center     Atomic      Atomic             Coordinates (Angstroms)
 Number     Number       Type             X           Y           Z
 ---------------------------------------------------------------------
      1          1           0        0.529878   -0.805904    0.461875
      2          1           0        0.531040    0.805128    0.462501
      3          1           0       -0.714326    0.000842   -0.173600
      4          1           0       -2.597049   -0.000034    0.127797
      5          7           0        0.321494   -0.000005   -0.125510
 ---------------------------------------------------------------------
 Rotational constants (GHZ):         257.8255559          52.0722448          48.7774326
 Leave Link  202 at Tue Apr  9 21:33:58 2024, MaxMem=   104857600 cpu:               0.0 elap:               0.0
 (Enter /opt/g16/l601.exe)
 Leave Link  601 at Tue Apr  9 21:33:58 2024, MaxMem=   104857600 cpu:               0.0 elap:               0.0
 (Enter /opt/g16/l9999.exe)
 Unable to Open any file for archive entry.
 1\1\GINC-DESKTOP-1D9QDE1\FOpt\External='python3 -u ../pes/h4n_anion_pe
 s.py'\ZDO\H4N1(1-)\JH-LI\09-Apr-2024\0\\#p external="python3 -u ../pes
 /h4n_anion_pes.py" opt=nomicro\\Minimum 2 in H2 + NH2 anion system\\-1
 ,1\H,0.5186037647,0.8055575752,0.3965096306\H,0.5183334419,-0.80547429
 63,0.3973693684\H,-0.1421431992,-0.0005892142,-0.8348512588\H,0.121456
 8372,0.0004744348,-2.7232377746\N,-0.0733003831,0.0000318676,0.1997965
 6\\Version=ES64L-G16RevC.01\HF=-57.0211466\RMSD=0.000e+00\RMSF=3.863e-
 05\Dipole=0.,0.,0.\PG=C01 [X(H4N1)]\\@
 The archive entry for this job was punched.


 Ideas are like rabbits. You get a couple and learn
 how to handle them, and pretty soon you have a dozen.
                                    -- John Steinbeck
 Job cpu time:       0 days  0 hours  0 minutes  0.8 seconds.
 Elapsed time:       0 days  0 hours  0 minutes  1.2 seconds.
 File lengths (MBytes):  RWF=      6 Int=      0 D2E=      0 Chk=      1 Scr=      1
 Normal termination of Gaussian 16 at Tue Apr  9 21:33:58 2024.
 Initial command:
 /opt/g16/l1.exe "/home/jh-li/scratch/g16/Gau-1160739.inp" -scrdir="/home/jh-li/scratch/g16/"
 Entering Link 1 = /opt/g16/l1.exe PID=   1160785.
  
 Copyright (c) 1988-2019, Gaussian, Inc.  All Rights Reserved.
  
 This is part of the Gaussian(R) 16 program.  It is based on
 the Gaussian(R) 09 system (copyright 2009, Gaussian, Inc.),
 the Gaussian(R) 03 system (copyright 2003, Gaussian, Inc.),
 the Gaussian(R) 98 system (copyright 1998, Gaussian, Inc.),
 the Gaussian(R) 94 system (copyright 1995, Gaussian, Inc.),
 the Gaussian 92(TM) system (copyright 1992, Gaussian, Inc.),
 the Gaussian 90(TM) system (copyright 1990, Gaussian, Inc.),
 the Gaussian 88(TM) system (copyright 1988, Gaussian, Inc.),
 the Gaussian 86(TM) system (copyright 1986, Carnegie Mellon
 University), and the Gaussian 82(TM) system (copyright 1983,
 Carnegie Mellon University). Gaussian is a federally registered
 trademark of Gaussian, Inc.
  
 This software contains proprietary and confidential information,
 including trade secrets, belonging to Gaussian, Inc.
  
 This software is provided under written license and may be
 used, copied, transmitted, or stored only in accord with that
 written license.
  
 The following legend is applicable only to US Government
 contracts under FAR:
  
                    RESTRICTED RIGHTS LEGEND
  
 Use, reproduction and disclosure by the US Government is
 subject to restrictions as set forth in subparagraphs (a)
 and (c) of the Commercial Computer Software - Restricted
 Rights clause in FAR 52.227-19.
  
 Gaussian, Inc.
 340 Quinnipiac St., Bldg. 40, Wallingford CT 06492
  
  
 ---------------------------------------------------------------
 Warning -- This program may not be used in any manner that
 competes with the business of Gaussian, Inc. or will provide
 assistance to any competitor of Gaussian, Inc.  The licensee
 of this program is prohibited from giving any competitor of
 Gaussian, Inc. access to this program.  By using this program,
 the user acknowledges that Gaussian, Inc. is engaged in the
 business of creating and licensing software in the field of
 computational chemistry and represents and warrants to the
 licensee that it is not a competitor of Gaussian, Inc. and that
 it will not use this program in any manner prohibited above.
 ---------------------------------------------------------------
  

 Cite this work as:
 Gaussian 16, Revision C.01,
 M. J. Frisch, G. W. Trucks, H. B. Schlegel, G. E. Scuseria, 
 M. A. Robb, J. R. Cheeseman, G. Scalmani, V. Barone, 
 G. A. Petersson, H. Nakatsuji, X. Li, M. Caricato, A. V. Marenich, 
 J. Bloino, B. G. Janesko, R. Gomperts, B. Mennucci, H. P. Hratchian, 
 J. V. Ortiz, A. F. Izmaylov, J. L. Sonnenberg, D. Williams-Young, 
 F. Ding, F. Lipparini, F. Egidi, J. Goings, B. Peng, A. Petrone, 
 T. Henderson, D. Ranasinghe, V. G. Zakrzewski, J. Gao, N. Rega, 
 G. Zheng, W. Liang, M. Hada, M. Ehara, K. Toyota, R. Fukuda, 
 J. Hasegawa, M. Ishida, T. Nakajima, Y. Honda, O. Kitao, H. Nakai, 
 T. Vreven, K. Throssell, J. A. Montgomery, Jr., J. E. Peralta, 
 F. Ogliaro, M. J. Bearpark, J. J. Heyd, E. N. Brothers, K. N. Kudin, 
 V. N. Staroverov, T. A. Keith, R. Kobayashi, J. Normand, 
 K. Raghavachari, A. P. Rendell, J. C. Burant, S. S. Iyengar, 
 J. Tomasi, M. Cossi, J. M. Millam, M. Klene, C. Adamo, R. Cammi, 
 J. W. Ochterski, R. L. Martin, K. Morokuma, O. Farkas, 
 J. B. Foresman, and D. J. Fox, Gaussian, Inc., Wallingford CT, 2019.
 
 ******************************************
 Gaussian 16:  ES64L-G16RevC.01  3-Jul-2019
                 9-Apr-2024 
 ******************************************
 %nproc=1
 Will use up to    1 processors via shared memory.
 %chk=min2-opt-freq.chk
 -------------------------------------------------------------------
 #p external="python3 -u ../pes/h4n_anion_pes.py" freq geom=allcheck
 -------------------------------------------------------------------
 1/10=4,18=10,29=7,30=1,38=1/1,3;
 2/12=2,40=1/2;
 3/11=9,14=-4,25=1,30=1,41=9900000,43=2,71=2,140=1/1;
 4/20=17,22=2,24=3,113=1,114=1/2;
 6/7=2,8=2,9=2,10=2/1;
 7/8=1,25=1,44=-1/16;
 1/10=4,18=10,30=1/3;
 99//99;
 Leave Link    1 at Tue Apr  9 21:33:58 2024, MaxMem=           0 cpu:               0.0 elap:               0.0
 (Enter /opt/g16/l101.exe)
 Structure from the checkpoint file:  "min2-opt-freq.chk"
 ----------------------------------
 Minimum 2 in H2 + NH2 anion system
 ----------------------------------
 Charge = -1 Multiplicity = 1
 Redundant internal coordinates found in file.  (old form).
 H,0,0.5186037647,0.8055575752,0.3965096306
 H,0,0.5183334419,-0.8054742963,0.3973693684
 H,0,-0.1421431992,-0.0005892142,-0.8348512588
 H,0,0.1214568372,0.0004744348,-2.7232377746
 N,0,-0.0733003831,0.0000318676,0.19979656
 Recover connectivity data from disk.
 ITRead=  0  0  0  0  0
 MicOpt= -1 -1 -1 -1 -1
 NAtoms=      5 NQM=        5 NQMF=       0 NMMI=      0 NMMIF=      0
                NMic=       0 NMicF=      0.
                    Isotopes and Nuclear Properties:
 (Nuclear quadrupole moments (NQMom) in fm**2, nuclear magnetic moments (NMagM)
  in nuclear magnetons)

  Atom         1           2           3           4           5
 IAtWgt=           1           1           1           1          14
 AtmWgt=   1.0078250   1.0078250   1.0078250   1.0078250  14.0030740
 NucSpn=           1           1           1           1           2
 AtZEff=   1.0000000   1.0000000   1.0000000   1.0000000   4.5500000
 NQMom=    0.0000000   0.0000000   0.0000000   0.0000000   2.0440000
 NMagM=    2.7928460   2.7928460   2.7928460   2.7928460   0.4037610
 AtZNuc=   1.0000000   1.0000000   1.0000000   1.0000000   7.0000000
 Leave Link  101 at Tue Apr  9 21:33:59 2024, MaxMem=   104857600 cpu:               0.1 elap:               0.1
 (Enter /opt/g16/l103.exe)

 GradGradGradGradGradGradGradGradGradGradGradGradGradGradGradGradGradGrad
 Berny optimization.
 Initialization pass.
 Trust Radius=3.00D-01 FncErr=1.00D-07 GrdErr=1.00D-07 EigMax=2.50D+02 EigMin=1.00D-04
 Number of steps in this run=      2 maximum allowed number of steps=      2.
 GradGradGradGradGradGradGradGradGradGradGradGradGradGradGradGradGradGrad

 Leave Link  103 at Tue Apr  9 21:33:59 2024, MaxMem=   104857600 cpu:               0.0 elap:               0.0
 (Enter /opt/g16/l202.exe)
                          Input orientation:                          
 ---------------------------------------------------------------------
 Center     Atomic      Atomic             Coordinates (Angstroms)
 Number     Number       Type             X           Y           Z
 ---------------------------------------------------------------------
      1          1           0        0.518604    0.805558    0.396510
      2          1           0        0.518333   -0.805474    0.397369
      3          1           0       -0.142143   -0.000589   -0.834851
      4          1           0        0.121457    0.000474   -2.723238
      5          7           0       -0.073300    0.000032    0.199797
 ---------------------------------------------------------------------
                    Distance matrix (angstroms):
                    1          2          3          4          5
     1  H    0.000000
     2  H    1.611032   0.000000
     3  H    1.613291   1.613207   0.000000
     4  H    3.246338   3.247346   1.906696   0.000000
     5  N    1.018783   1.018777   1.036936   2.929515   0.000000
 Stoichiometry    H4N(1-)
 Framework group  C1[X(H4N)]
 Deg. of freedom     9
 Full point group                 C1      NOp   1
 RotChk:  IX=3 Diff= 1.53D-14
 Largest Abelian subgroup         C1      NOp   1
 Largest concise Abelian subgroup C1      NOp   1
                         Standard orientation:                         
 ---------------------------------------------------------------------
 Center     Atomic      Atomic             Coordinates (Angstroms)
 Number     Number       Type             X           Y           Z
 ---------------------------------------------------------------------
      1          1           0        0.529878   -0.805904    0.461875
      2          1           0        0.531040    0.805128    0.462501
      3          1           0       -0.714326    0.000842   -0.173600
      4          1           0       -2.597049   -0.000034    0.127797
      5          7           0        0.321494   -0.000005   -0.125510
 ---------------------------------------------------------------------
 Rotational constants (GHZ):         257.8255559          52.0722448          48.7774326
 Leave Link  202 at Tue Apr  9 21:33:59 2024, MaxMem=   104857600 cpu:               0.0 elap:               0.0
 (Enter /opt/g16/l301.exe)
 Standard basis: STO-3G (5D, 7F)
 Ernie: Thresh=  0.10000D-02 Tol=  0.10000D-05 Strict=F.
 There are     9 symmetry adapted cartesian basis functions of A   symmetry.
 There are     9 symmetry adapted basis functions of A   symmetry.
     9 basis functions,    27 primitive gaussians,     9 cartesian basis functions
     6 alpha electrons        6 beta electrons
       nuclear repulsion energy        13.6966772744 Hartrees.
 IExCor=    0 DFT=F Ex=HF Corr=None ExCW=0 ScaHFX=  1.000000
 ScaDFX=  1.000000  1.000000  1.000000  1.000000 ScalE2=  1.000000  1.000000
 IRadAn=      5 IRanWt=     -1 IRanGd=            0 ICorTp=0 IEmpDi=  4
 NAtoms=    5 NActive=    5 NUniq=    5 SFac= 1.00D+00 NAtFMM=   60 NAOKFM=F Big=F
 Integral buffers will be    131072 words long.
 Raffenetti 1 integral format.
 Two-electron integral symmetry is turned on.
 Leave Link  301 at Tue Apr  9 21:33:59 2024, MaxMem=   104857600 cpu:               0.0 elap:               0.0
 (Enter /opt/g16/l402.exe)
 External calculation of energy, first and second derivatives.
 Running external command "python3 -u ../pes/h4n_anion_pes.py R"
         input file       "/home/jh-li/scratch/g16/Gau-1160785.EIn"
         output file      "/home/jh-li/scratch/g16/Gau-1160785.EOu"
         message file     "/home/jh-li/scratch/g16/Gau-1160785.EMs"
         fchk file        "/home/jh-li/scratch/g16/Gau-1160785.EFC"
         mat. el file     "/home/jh-li/scratch/g16/Gau-1160785.EUF"
 initialization done
 Recovered energy= -57.0211465682     dipole=      0.000000000000      0.000000000000      0.000000000000
 Energy=    -57.0211466     NIter=   0.
 Dipole moment=       0.000000       0.000000       0.000000
 Leave Link  402 at Tue Apr  9 21:33:59 2024, MaxMem=   104857600 cpu:               0.0 elap:               0.3
 (Enter /opt/g16/l601.exe)
 Leave Link  601 at Tue Apr  9 21:33:59 2024, MaxMem=   104857600 cpu:               0.0 elap:               0.0
 (Enter /opt/g16/l716.exe)
 Dipole        = 0.00000000D+00 0.00000000D+00 0.00000000D+00
 Full mass-weighted force constant matrix:
 Low frequencies ---  -62.2996   -2.0683    0.1443    0.7372    6.2789   12.5275
 Low frequencies ---  309.6282  382.0076  424.0969
 Diagonal vibrational polarizability:
        0.0000000       0.0000000       0.0000000
 Harmonic frequencies (cm**-1), IR intensities (KM/Mole), Raman scattering
 activities (A**4/AMU), depolarization ratios for plane and unpolarized
 incident light, reduced masses (AMU), force constants (mDyne/A),
 and normal coordinates:
                      1                      2                      3
                      A                      A                      A
 Frequencies --    309.6254               382.0071               424.0969
 Red. masses --      1.0080                 1.0690                 1.0290
 Frc consts  --      0.0569                 0.0919                 0.1090
 IR Inten    --      0.0000                 0.0000                 0.0000
  Atom  AN      X      Y      Z        X      Y      Z        X      Y      Z
     1   1     0.51   0.04  -0.12     0.41  -0.02  -0.19    -0.17   0.01   0.06
     2   1    -0.51   0.04   0.12     0.42   0.02  -0.19    -0.17  -0.01   0.06
     3   1    -0.00  -0.50   0.00    -0.11   0.00   0.59    -0.06   0.00  -0.10
     4   1     0.00   0.46  -0.00     0.21  -0.00  -0.42     0.96  -0.00   0.03
     5   7    -0.00  -0.00   0.00    -0.07   0.00   0.02    -0.04   0.00  -0.00
                      4                      5                      6
                      A                      A                      A
 Frequencies --   1215.8354              1650.7630              1693.6971
 Red. masses --      1.1610                 1.0593                 1.0614
 Frc consts  --      1.0112                 1.7008                 1.7940
 IR Inten    --      0.0000                 0.0000                 0.0000
  Atom  AN      X      Y      Z        X      Y      Z        X      Y      Z
     1   1    -0.26   0.19   0.38    -0.38  -0.39  -0.37     0.41   0.07  -0.02
     2   1    -0.26  -0.19   0.38    -0.38   0.39  -0.37    -0.41   0.07   0.02
     3   1    -0.06  -0.00   0.69     0.01  -0.00   0.34     0.00   0.81   0.00
     4   1    -0.05   0.00  -0.08    -0.01   0.00  -0.02     0.00  -0.05  -0.00
     5   7     0.05   0.00  -0.10     0.06  -0.00   0.03    -0.00  -0.06  -0.00
                      7                      8                      9
                      A                      A                      A
 Frequencies --   3174.8383              3464.0556              3533.1648
 Red. masses --      1.0607                 1.0569                 1.0856
 Frc consts  --      6.2990                 7.4725                 7.9843
 IR Inten    --      0.0000                 0.0000                 0.0000
  Atom  AN      X      Y      Z        X      Y      Z        X      Y      Z
     1   1    -0.05   0.11  -0.06    -0.15   0.57  -0.37    -0.16   0.55  -0.40
     2   1    -0.05  -0.11  -0.06    -0.15  -0.57  -0.37     0.16   0.55   0.41
     3   1     0.97  -0.00   0.11    -0.16   0.00   0.02    -0.00  -0.03  -0.00
     4   1     0.02   0.00  -0.01    -0.00   0.00  -0.00    -0.00   0.00   0.00
     5   7    -0.06   0.00   0.00     0.03  -0.00   0.05    -0.00  -0.08  -0.00

 -------------------
 - Thermochemistry -
 -------------------
 Temperature   298.150 Kelvin.  Pressure   1.00000 Atm.
 Atom     1 has atomic number  1 and mass   1.00783
 Atom     2 has atomic number  1 and mass   1.00783
 Atom     3 has atomic number  1 and mass   1.00783
 Atom     4 has atomic number  1 and mass   1.00783
 Atom     5 has atomic number  7 and mass  14.00307
 Molecular mass:    18.03437 amu.
 Principal axes and moments of inertia in atomic units:
                           1         2         3
     Eigenvalues --     6.99985  34.65841  36.99951
           X            0.99979   0.00000   0.02052
           Y           -0.00000   1.00000  -0.00000
           Z           -0.02052   0.00000   0.99979
 This molecule is an asymmetric top.
 Rotational symmetry number  1.
 Rotational temperatures (Kelvin)     12.37368     2.49907     2.34095
 Rotational constants (GHZ):         257.82556    52.07224    48.77743
 Zero-point vibrational energy      94792.6 (Joules/Mol)
                                   22.65597 (Kcal/Mol)
 Warning -- explicit consideration of   3 degrees of freedom as
           vibrations may cause significant error
 Vibrational temperatures:    445.48   549.62   610.18  1749.32  2375.08
          (Kelvin)           2436.85  4567.88  4984.00  5083.44
 
 Zero-point correction=                           0.036105 (Hartree/Particle)
 Thermal correction to Energy=                    0.039980
 Thermal correction to Enthalpy=                  0.040924
 Thermal correction to Gibbs Free Energy=         0.014895
 Sum of electronic and zero-point Energies=            -56.985042
 Sum of electronic and thermal Energies=               -56.981167
 Sum of electronic and thermal Enthalpies=             -56.980223
 Sum of electronic and thermal Free Energies=          -57.006252
 
                     E (Thermal)             CV                S
                      KCal/Mol        Cal/Mol-Kelvin    Cal/Mol-Kelvin
 Total                   25.088             10.820             54.783
 Electronic               0.000              0.000              0.000
 Translational            0.889              2.981             34.612
 Rotational               0.889              2.981             16.847
 Vibrational             23.310              4.858              3.324
 Vibration     1          0.699              1.655              1.364
 Vibration     2          0.751              1.509              1.031
 Vibration     3          0.786              1.418              0.878
                       Q            Log10(Q)             Ln(Q)
 Total Bot       0.140877D-06         -6.851159        -15.775377
 Total V=0       0.569882D+10          9.755785         22.463525
 Vib (Bot)       0.436358D-16        -16.360157        -37.670654
 Vib (Bot)    1  0.610847D+00         -0.214068         -0.492909
 Vib (Bot)    2  0.472638D+00         -0.325471         -0.749425
 Vib (Bot)    3  0.412731D+00         -0.384333         -0.884959
 Vib (V=0)       0.176517D+01          0.246787          0.568249
 Vib (V=0)    1  0.128939D+01          0.110384          0.254168
 Vib (V=0)    2  0.118803D+01          0.074828          0.172297
 Vib (V=0)    3  0.114834D+01          0.060071          0.138319
 Electronic      0.100000D+01          0.000000          0.000000
 Translational   0.301027D+07          6.478605         14.917540
 Rotational      0.107249D+04          3.030392          6.977736
 ***** Axes restored to original set *****
 -------------------------------------------------------------------
 Center     Atomic                   Forces (Hartrees/Bohr)
 Number     Number              X              Y              Z
 -------------------------------------------------------------------
      1        1           0.000044324    0.000028893    0.000031942
      2        1           0.000053125   -0.000035472    0.000055398
      3        1          -0.000045941    0.000030863   -0.000000408
      4        1           0.000005342   -0.000004872   -0.000015551
      5        7          -0.000057634   -0.000019421   -0.000066023
 -------------------------------------------------------------------
 Cartesian Forces:  Max     0.000066023 RMS     0.000038630
 Force constants in Cartesian coordinates: 
                1             2             3             4             5 
      1  0.156175D+00
      2  0.176468D+00  0.299722D+00
      3  0.601778D-01  0.607099D-01  0.572828D-01
      4  0.875896D-02 -0.235393D-01  0.615192D-02  0.156056D+00
      5  0.235384D-01 -0.280642D-01  0.823495D-02 -0.176361D+00  0.299707D+00
      6  0.612232D-02 -0.820419D-02  0.293210D-03  0.603582D-01 -0.609961D-01
      7 -0.674716D-02 -0.284101D-02 -0.240810D-01 -0.674388D-02  0.281939D-02
      8 -0.560008D-02 -0.273463D-02 -0.355399D-01  0.560934D-02 -0.270216D-02
      9  0.382376D-02  0.264441D-02 -0.741877D-02  0.381228D-02 -0.264924D-02
     10  0.208651D-03  0.747622D-03  0.114335D-02  0.209414D-03 -0.746533D-03
     11  0.542711D-03  0.255658D-03  0.151790D-02 -0.540800D-03  0.255599D-03
     12 -0.650013D-03 -0.500158D-03  0.974405D-04 -0.651794D-03  0.502869D-03
     13 -0.158394D+00 -0.150842D+00 -0.433962D-01 -0.158279D+00  0.150756D+00
     14 -0.194954D+00 -0.269175D+00 -0.349250D-01  0.194836D+00 -0.269193D+00
     15 -0.694673D-01 -0.546477D-01 -0.502529D-01 -0.696641D-01  0.549053D-01
                6             7             8             9            10 
      6  0.574168D-01
      7 -0.240761D-01  0.426143D-01
      8  0.355429D-01  0.256890D-04  0.692171D-01
      9 -0.745486D-02  0.407949D-01  0.192238D-03  0.356427D+00
     10  0.114374D-02 -0.518136D-02  0.000000D+00 -0.294480D-02  0.132732D-02
     11 -0.151703D-02  0.000000D+00 -0.525583D-02 -0.993278D-05  0.000000D+00
     12  0.915845D-04 -0.117380D-02 -0.499595D-05  0.645963D-02 -0.288864D-05
     13 -0.435524D-01 -0.239429D-01 -0.356622D-04 -0.454831D-01  0.343607D-02
     14  0.351767D-01 -0.471648D-05 -0.585209D-01 -0.177474D-03  0.000000D+00
     15 -0.503449D-01  0.853723D-02 -0.190249D-03 -0.348024D+00  0.659620D-03
               11            12            13            14            15 
     11  0.105578D-02
     12  0.172936D-05  0.665604D-02
     13 -0.163401D-05  0.247858D-02  0.337177D+00
     14  0.368863D-02  0.000000D+00  0.123230D-03  0.593190D+00
     15  0.733636D-05 -0.133004D-01  0.129940D+00 -0.747072D-04  0.461924D+00
 Leave Link  716 at Tue Apr  9 21:33:59 2024, MaxMem=   104857600 cpu:               0.0 elap:               0.0
 (Enter /opt/g16/l103.exe)

 GradGradGradGradGradGradGradGradGradGradGradGradGradGradGradGradGradGrad
 Berny optimization.
 Search for a local minimum.
 Step number   1 out of a maximum of    2
 All quantities printed in internal units (Hartrees-Bohrs-Radians)
 Second derivative matrix not updated -- analytic derivatives used.
 The second derivative matrix:
                          X1        Y1        Z1        X2        Y2
           X1           0.15617
           Y1           0.17647   0.29972
           Z1           0.06018   0.06071   0.05728
           X2           0.00876  -0.02354   0.00615   0.15606
           Y2           0.02354  -0.02806   0.00823  -0.17636   0.29971
           Z2           0.00612  -0.00820   0.00029   0.06036  -0.06100
           X3          -0.00675  -0.00284  -0.02408  -0.00674   0.00282
           Y3          -0.00560  -0.00273  -0.03554   0.00561  -0.00270
           Z3           0.00382   0.00264  -0.00742   0.00381  -0.00265
           X4           0.00021   0.00075   0.00114   0.00021  -0.00075
           Y4           0.00054   0.00026   0.00152  -0.00054   0.00026
           Z4          -0.00065  -0.00050   0.00010  -0.00065   0.00050
           X5          -0.15839  -0.15084  -0.04340  -0.15828   0.15076
           Y5          -0.19495  -0.26917  -0.03493   0.19484  -0.26919
           Z5          -0.06947  -0.05465  -0.05025  -0.06966   0.05491
                          Z2        X3        Y3        Z3        X4
           Z2           0.05742
           X3          -0.02408   0.04261
           Y3           0.03554   0.00003   0.06922
           Z3          -0.00745   0.04079   0.00019   0.35643
           X4           0.00114  -0.00518   0.00000  -0.00294   0.00133
           Y4          -0.00152   0.00000  -0.00526  -0.00001  -0.00000
           Z4           0.00009  -0.00117  -0.00000   0.00646  -0.00000
           X5          -0.04355  -0.02394  -0.00004  -0.04548   0.00344
           Y5           0.03518  -0.00000  -0.05852  -0.00018  -0.00000
           Z5          -0.05034   0.00854  -0.00019  -0.34802   0.00066
                          Y4        Z4        X5        Y5        Z5
           Y4           0.00106
           Z4           0.00000   0.00666
           X5          -0.00000   0.00248   0.33718
           Y5           0.00369   0.00000   0.00012   0.59319
           Z5           0.00001  -0.01330   0.12994  -0.00007   0.46192
 ITU=  0
     Eigenvalues ---    0.00366   0.00628   0.00810   0.11319   0.12894
     Eigenvalues ---    0.13620   0.52646   0.76126   0.82345
 Angle between quadratic step and forces=  73.12 degrees.
 Linear search not attempted -- first point.
 B after Tr=     0.000024   -0.000019    0.000137
         Rot=    1.000000   -0.000002   -0.000007   -0.000003 Ang=  -0.00 deg.
 Variable       Old X    -DE/DX   Delta X   Delta X   Delta X     New X
                                 (Linear)    (Quad)   (Total)
    X1        0.98002   0.00004   0.00000   0.00009   0.00012   0.98014
    Y1        1.52228   0.00003   0.00000  -0.00013  -0.00015   1.52214
    Z1        0.74929   0.00003   0.00000   0.00120   0.00133   0.75062
    X2        0.97951   0.00005   0.00000   0.00053   0.00057   0.98008
    Y2       -1.52213  -0.00004   0.00000  -0.00004  -0.00006  -1.52218
    Z2        0.75092   0.00006   0.00000  -0.00044  -0.00032   0.75060
    X3       -0.26861  -0.00005   0.00000  -0.00118  -0.00118  -0.26979
    Y3       -0.00111   0.00003   0.00000   0.00115   0.00113   0.00002
    Z3       -1.57764  -0.00000   0.00000   0.00058   0.00072  -1.57692
    X4        0.22952   0.00001   0.00000   0.00048   0.00043   0.22995
    Y4        0.00090  -0.00000   0.00000  -0.00087  -0.00087   0.00003
    Z4       -5.14617  -0.00002   0.00000  -0.00240  -0.00227  -5.14844
    X5       -0.13852  -0.00006   0.00000   0.00003   0.00006  -0.13846
    Y5        0.00006  -0.00002   0.00000  -0.00004  -0.00006   0.00000
    Z5        0.37756  -0.00007   0.00000   0.00040   0.00054   0.37810
         Item               Value     Threshold  Converged?
 Maximum Force            0.000066     0.000450     YES
 RMS     Force            0.000039     0.000300     YES
 Maximum Displacement     0.002265     0.001800     NO 
 RMS     Displacement     0.000886     0.001200     YES
 Predicted change in Energy=-7.566486D-08
 GradGradGradGradGradGradGradGradGradGradGradGradGradGradGradGradGradGrad

 Leave Link  103 at Tue Apr  9 21:33:59 2024, MaxMem=   104857600 cpu:               0.0 elap:               0.0
 (Enter /opt/g16/l9999.exe)
 Unable to Open any file for archive entry.
 1\1\GINC-DESKTOP-1D9QDE1\Freq\External='python3 -u ../pes/h4n_anion_pe
 s.py'\ZDO\H4N1(1-)\JH-LI\09-Apr-2024\0\\#p external="python3 -u ../pes
 /h4n_anion_pes.py" freq geom=allcheck\\Minimum 2 in H2 + NH2 anion sys
 tem\\-1,1\H,0.5186037647,0.8055575752,0.3965096306\H,0.5183334419,-0.8
 054742963,0.3973693684\H,-0.1421431992,-0.0005892142,-0.8348512588\H,0
 .1214568372,0.0004744348,-2.7232377746\N,-0.0733003831,0.0000318676,0.
 19979656\\Version=ES64L-G16RevC.01\HF=-57.0211466\RMSD=0.000e+00\RMSF=
 3.863e-05\ZeroPoint=0.0361046\Thermal=0.0399798\ETot=-56.9811667\HTot=
 -56.9802225\GTot=-57.0062517\Dipole=0.,0.,0.\PG=C01 [X(H4N1)]\NImag=0\
 \0.15617483,0.17646837,0.29972152,0.06017778,0.06070988,0.05728282,0.0
 0875896,-0.02353930,0.00615192,0.15605592,0.02353842,-0.02806422,0.008
 23495,-0.17636103,0.29970742,0.00612232,-0.00820419,0.00029321,0.06035
 823,-0.06099613,0.05741680,-0.00674716,-0.00284101,-0.02408101,-0.0067
 4388,0.00281939,-0.02407606,0.04261430,-0.00560008,-0.00273463,-0.0355
 3986,0.00560934,-0.00270216,0.03554285,0.00002569,0.06921712,0.0038237
 6,0.00264441,-0.00741877,0.00381228,-0.00264924,-0.00745486,0.04079487
 ,0.00019224,0.35642744,0.00020865,0.00074762,0.00114335,0.00020941,-0.
 00074653,0.00114374,-0.00518136,0.00000071,-0.00294480,0.00132732,0.00
 054271,0.00025566,0.00151790,-0.00054080,0.00025560,-0.00151703,0.0000
 0065,-0.00525583,-0.00000993,-0.00000092,0.00105578,-0.00065001,-0.000
 50016,0.00009744,-0.00065179,0.00050287,0.00009158,-0.00117380,-0.0000
 0500,0.00645963,-0.00000289,0.00000173,0.00665604,-0.15839363,-0.15084
 172,-0.04339617,-0.15827876,0.15075580,-0.04355238,-0.02394290,-0.0000
 3566,-0.04548309,0.00343607,-0.00000163,0.00247858,0.33717679,-0.19495
 352,-0.26917486,-0.03492503,0.19483587,-0.26919318,0.03517668,-0.00000
 472,-0.05852090,-0.00017747,-0.00000088,0.00368863,0.00000055,0.000123
 23,0.59318995,-0.06946729,-0.05464768,-0.05025287,-0.06966409,0.054905
 28,-0.05034489,0.00853723,-0.00019025,-0.34802384,0.00065962,0.0000073
 4,-0.01330042,0.12993971,-0.00007471,0.46192448\\-0.00004432,-0.000028
 89,-0.00003194,-0.00005312,0.00003547,-0.00005540,0.00004594,-0.000030
 86,0.00000041,-0.00000534,0.00000487,0.00001555,0.00005763,0.00001942,
 0.00006602\\\@
 The archive entry for this job was punched.


 WHERE THERE IS MUCH DESIRE TO LEARN, THERE OF NECESSITY WILL BE
 MUCH ARGUING, MUCH WRITING, MANY OPINIONS; FOR OPINION IN GOOD MEN
 IS BUT KNOWLEDGE IN THE MAKING. -- JOHN MILTON.
 Job cpu time:       0 days  0 hours  0 minutes  0.4 seconds.
 Elapsed time:       0 days  0 hours  0 minutes  0.6 seconds.
 File lengths (MBytes):  RWF=      6 Int=      0 D2E=      0 Chk=      1 Scr=      1
 Normal termination of Gaussian 16 at Tue Apr  9 21:33:59 2024.
