 Entering Gaussian System, Link 0=g16
 Input=ts1-opt-freq.gjf
 Output=ts1-opt-freq.log
 Initial command:
 /opt/g16/l1.exe "/home/jh-li/scratch/g16/Gau-1164320.inp" -scrdir="/home/jh-li/scratch/g16/"
 Entering Link 1 = /opt/g16/l1.exe PID=   1164322.
  
 Copyright (c) 1988-2019, Gaussian, Inc.  All Rights Reserved.
  
 This is part of the Gaussian(R) 16 program.  It is based on
 the Gaussian(R) 09 system (copyright 2009, Gaussian, Inc.),
 the Gaussian(R) 03 system (copyright 2003, Gaussian, Inc.),
 the Gaussian(R) 98 system (copyright 1998, Gaussian, Inc.),
 the Gaussian(R) 94 system (copyright 1995, Gaussian, Inc.),
 the Gaussian 92(TM) system (copyright 1992, Gaussian, Inc.),
 the Gaussian 90(TM) system (copyright 1990, Gaussian, Inc.),
 the Gaussian 88(TM) system (copyright 1988, Gaussian, Inc.),
 the Gaussian 86(TM) system (copyright 1986, Carnegie Mellon
 University), and the Gaussian 82(TM) system (copyright 1983,
 Carnegie Mellon University). Gaussian is a federally registered
 trademark of Gaussian, Inc.
  
 This software contains proprietary and confidential information,
 including trade secrets, belonging to Gaussian, Inc.
  
 This software is provided under written license and may be
 used, copied, transmitted, or stored only in accord with that
 written license.
  
 The following legend is applicable only to US Government
 contracts under FAR:
  
                    RESTRICTED RIGHTS LEGEND
  
 Use, reproduction and disclosure by the US Government is
 subject to restrictions as set forth in subparagraphs (a)
 and (c) of the Commercial Computer Software - Restricted
 Rights clause in FAR 52.227-19.
  
 Gaussian, Inc.
 340 Quinnipiac St., Bldg. 40, Wallingford CT 06492
  
  
 ---------------------------------------------------------------
 Warning -- This program may not be used in any manner that
 competes with the business of Gaussian, Inc. or will provide
 assistance to any competitor of Gaussian, Inc.  The licensee
 of this program is prohibited from giving any competitor of
 Gaussian, Inc. access to this program.  By using this program,
 the user acknowledges that Gaussian, Inc. is engaged in the
 business of creating and licensing software in the field of
 computational chemistry and represents and warrants to the
 licensee that it is not a competitor of Gaussian, Inc. and that
 it will not use this program in any manner prohibited above.
 ---------------------------------------------------------------
  

 Cite this work as:
 Gaussian 16, Revision C.01,
 M. J. Frisch, G. W. Trucks, H. B. Schlegel, G. E. Scuseria, 
 M. A. Robb, J. R. Cheeseman, G. Scalmani, V. Barone, 
 G. A. Petersson, H. Nakatsuji, X. Li, M. Caricato, A. V. Marenich, 
 J. Bloino, B. G. Janesko, R. Gomperts, B. Mennucci, H. P. Hratchian, 
 J. V. Ortiz, A. F. Izmaylov, J. L. Sonnenberg, D. Williams-Young, 
 F. Ding, F. Lipparini, F. Egidi, J. Goings, B. Peng, A. Petrone, 
 T. Henderson, D. Ranasinghe, V. G. Zakrzewski, J. Gao, N. Rega, 
 G. Zheng, W. Liang, M. Hada, M. Ehara, K. Toyota, R. Fukuda, 
 J. Hasegawa, M. Ishida, T. Nakajima, Y. Honda, O. Kitao, H. Nakai, 
 T. Vreven, K. Throssell, J. A. Montgomery, Jr., J. E. Peralta, 
 F. Ogliaro, M. J. Bearpark, J. J. Heyd, E. N. Brothers, K. N. Kudin, 
 V. N. Staroverov, T. A. Keith, R. Kobayashi, J. Normand, 
 K. Raghavachari, A. P. Rendell, J. C. Burant, S. S. Iyengar, 
 J. Tomasi, M. Cossi, J. M. Millam, M. Klene, C. Adamo, R. Cammi, 
 J. W. Ochterski, R. L. Martin, K. Morokuma, O. Farkas, 
 J. B. Foresman, and D. J. Fox, Gaussian, Inc., Wallingford CT, 2019.
 
 ******************************************
 Gaussian 16:  ES64L-G16RevC.01  3-Jul-2019
                 9-Apr-2024 
 ******************************************
 %nproc=1
 Will use up to    1 processors via shared memory.
 %chk=ts1-opt-freq.chk
 ----------------------------------------------------------------------
 #p external="python3 -u ../pes/h4n_anion_pes.py" opt=(nomicro,ts,noeig
 en,calcall)
 ----------------------------------------------------------------------
 1/5=1,10=4,11=1,18=20,26=1,38=1/1,3;
 2/9=110,12=2,17=6,18=5,40=1/2;
 3/11=9,25=1,30=1,41=9900000,43=2,71=2,140=1/1;
 4/20=17,22=2,24=3,113=1,114=1/2;
 6/7=2,8=2,9=2,10=2,18=1/1;
 7/25=1,44=-1/16;
 1/5=1,10=4,11=1,18=20,26=1/3(3);
 2/9=110/2;
 7/8=1,9=1,25=1,44=-1/16;
 99//99;
 2/9=110/2;
 3/11=9,25=1,30=1,41=9900000,43=2,71=2,140=1/1;
 4/16=2,20=17,22=2,24=3,113=1,114=1/2;
 7/25=1,44=-1/16;
 1/5=1,10=4,11=1,18=20,26=1/3(-4);
 2/9=110/2;
 6/7=2,8=2,9=2,10=2,18=1/1;
 7/8=1,9=1,25=1,44=-1/16;
 99//99;
 Leave Link    1 at Tue Apr  9 21:41:12 2024, MaxMem=           0 cpu:               0.0 elap:               0.0
 (Enter /opt/g16/l101.exe)
 -----------------------
 H2 + NH2^- -> H^- + NH3
 -----------------------
 Symbolic Z-matrix:
 Charge = -1 Multiplicity = 1
 H                     0.51204   0.8031    0.43951 
 H                     0.51208  -0.80304   0.43963 
 H                     0.0232   -0.00002  -1.31411 
 H                     0.09031  -0.00002  -2.23073 
 N                    -0.08187  0.         0.19183 
 
 Add virtual bond connecting atoms H4         and H3         Dist= 1.74D+00.
 Add virtual bond connecting atoms N5         and H3         Dist= 2.85D+00.
 ITRead=  0  0  0  0  0
 MicOpt= -1 -1 -1 -1 -1
 NAtoms=      5 NQM=        5 NQMF=       0 NMMI=      0 NMMIF=      0
                NMic=       0 NMicF=      0.
                    Isotopes and Nuclear Properties:
 (Nuclear quadrupole moments (NQMom) in fm**2, nuclear magnetic moments (NMagM)
  in nuclear magnetons)

  Atom         1           2           3           4           5
 IAtWgt=           1           1           1           1          14
 AtmWgt=   1.0078250   1.0078250   1.0078250   1.0078250  14.0030740
 NucSpn=           1           1           1           1           2
 AtZEff=  -0.0000000  -0.0000000  -0.0000000  -0.0000000  -0.0000000
 NQMom=    0.0000000   0.0000000   0.0000000   0.0000000   2.0440000
 NMagM=    2.7928460   2.7928460   2.7928460   2.7928460   0.4037610
 AtZNuc=   1.0000000   1.0000000   1.0000000   1.0000000   7.0000000
 Leave Link  101 at Tue Apr  9 21:41:12 2024, MaxMem=   104857600 cpu:               0.2 elap:               0.2
 (Enter /opt/g16/l103.exe)

 GradGradGradGradGradGradGradGradGradGradGradGradGradGradGradGradGradGrad
 Berny optimization.
 Initialization pass.
                           ----------------------------
                           !    Initial Parameters    !
                           ! (Angstroms and Degrees)  !
 --------------------------                            --------------------------
 ! Name  Definition              Value          Derivative Info.                !
 --------------------------------------------------------------------------------
 ! R1    R(1,5)                  1.0291         calculate D2E/DX2 analytically  !
 ! R2    R(2,5)                  1.0291         calculate D2E/DX2 analytically  !
 ! R3    R(3,4)                  0.9191         calculate D2E/DX2 analytically  !
 ! R4    R(3,5)                  1.5096         calculate D2E/DX2 analytically  !
 ! A1    A(1,5,2)              102.587          calculate D2E/DX2 analytically  !
 ! A2    A(1,5,3)              101.5334         calculate D2E/DX2 analytically  !
 ! A3    A(2,5,3)              101.5388         calculate D2E/DX2 analytically  !
 ! A4    L(4,3,5,1,-1)         179.8801         calculate D2E/DX2 analytically  !
 ! A5    L(4,3,5,1,-2)         180.3058         calculate D2E/DX2 analytically  !
 ! D1    D(1,5,3,2)            105.5845         calculate D2E/DX2 analytically  !
 --------------------------------------------------------------------------------
 Trust Radius=3.00D-01 FncErr=1.00D-07 GrdErr=1.00D-07 EigMax=2.50D+02 EigMin=1.00D-04
 Number of steps in this run=     20 maximum allowed number of steps=    100.
 Search for a saddle point of order  1.
 GradGradGradGradGradGradGradGradGradGradGradGradGradGradGradGradGradGrad

 Leave Link  103 at Tue Apr  9 21:41:12 2024, MaxMem=   104857600 cpu:               0.0 elap:               0.0
 (Enter /opt/g16/l202.exe)
                          Input orientation:                          
 ---------------------------------------------------------------------
 Center     Atomic      Atomic             Coordinates (Angstroms)
 Number     Number       Type             X           Y           Z
 ---------------------------------------------------------------------
      1          1           0        0.512044    0.803101    0.439510
      2          1           0        0.512085   -0.803037    0.439631
      3          1           0        0.023202   -0.000024   -1.314108
      4          1           0        0.090309   -0.000019   -2.230732
      5          7           0       -0.081866   -0.000002    0.191827
 ---------------------------------------------------------------------
                    Distance matrix (angstroms):
                    1          2          3          4          5
     1  H    0.000000
     2  H    1.606138   0.000000
     3  H    1.989762   1.989833   0.000000
     4  H    2.820116   2.820208   0.919078   0.000000
     5  N    1.029102   1.029102   1.509596   2.428670   0.000000
 Stoichiometry    H4N(1-)
 Framework group  C1[X(H4N)]
 Deg. of freedom     9
 Full point group                 C1      NOp   1
 Largest Abelian subgroup         C1      NOp   1
 Largest concise Abelian subgroup C1      NOp   1
                         Standard orientation:                         
 ---------------------------------------------------------------------
 Center     Atomic      Atomic             Coordinates (Angstroms)
 Number     Number       Type             X           Y           Z
 ---------------------------------------------------------------------
      1          1           0       -0.571797    0.803099    0.445713
      2          1           0       -0.571918   -0.803039    0.445747
      3          1           0        1.194169   -0.000025    0.003548
      4          1           0        2.108692   -0.000019    0.094941
      5          7           0       -0.308449   -0.000002   -0.141421
 ---------------------------------------------------------------------
 Rotational constants (GHZ):         261.7095832          60.9523282          56.4027810
 Leave Link  202 at Tue Apr  9 21:41:12 2024, MaxMem=   104857600 cpu:               0.0 elap:               0.0
 (Enter /opt/g16/l301.exe)
 Standard basis: STO-3G (5D, 7F)
 Ernie: Thresh=  0.10000D-02 Tol=  0.10000D-05 Strict=F.
 There are     9 symmetry adapted cartesian basis functions of A   symmetry.
 There are     9 symmetry adapted basis functions of A   symmetry.
     9 basis functions,    27 primitive gaussians,     9 cartesian basis functions
     6 alpha electrons        6 beta electrons
       nuclear repulsion energy        12.9904018817 Hartrees.
 IExCor=    0 DFT=F Ex=HF Corr=None ExCW=0 ScaHFX=  1.000000
 ScaDFX=  1.000000  1.000000  1.000000  1.000000 ScalE2=  1.000000  1.000000
 IRadAn=      5 IRanWt=     -1 IRanGd=            0 ICorTp=0 IEmpDi=  4
 NAtoms=    5 NActive=    5 NUniq=    5 SFac= 1.00D+00 NAtFMM=   60 NAOKFM=F Big=F
 Integral buffers will be    131072 words long.
 Raffenetti 1 integral format.
 Two-electron integral symmetry is turned on.
 Leave Link  301 at Tue Apr  9 21:41:12 2024, MaxMem=   104857600 cpu:               0.0 elap:               0.0
 (Enter /opt/g16/l402.exe)
 External calculation of energy, first and second derivatives.
 Running external command "python3 -u ../pes/h4n_anion_pes.py R"
         input file       "/home/jh-li/scratch/g16/Gau-1164322.EIn"
         output file      "/home/jh-li/scratch/g16/Gau-1164322.EOu"
         message file     "/home/jh-li/scratch/g16/Gau-1164322.EMs"
         fchk file        "/home/jh-li/scratch/g16/Gau-1164322.EFC"
         mat. el file     "/home/jh-li/scratch/g16/Gau-1164322.EUF"
 initialization done
 Recovered energy= -57.0001313893     dipole=      0.000000000000      0.000000000000      0.000000000000
 Energy=    -57.0001314     NIter=   0.
 Dipole moment=       0.000000       0.000000       0.000000
 Leave Link  402 at Tue Apr  9 21:41:12 2024, MaxMem=   104857600 cpu:               0.0 elap:               0.3
 (Enter /opt/g16/l601.exe)
 Leave Link  601 at Tue Apr  9 21:41:12 2024, MaxMem=   104857600 cpu:               0.0 elap:               0.0
 (Enter /opt/g16/l716.exe)
 Dipole        = 0.00000000D+00 0.00000000D+00 0.00000000D+00
 ***** Axes restored to original set *****
 -------------------------------------------------------------------
 Center     Atomic                   Forces (Hartrees/Bohr)
 Number     Number              X              Y              Z
 -------------------------------------------------------------------
      1        1          -0.000049257    0.000037281   -0.000064803
      2        1          -0.000048959   -0.000037563   -0.000065924
      3        1           0.000038570   -0.000000865   -0.000019887
      4        1          -0.000009981    0.000000138    0.000062706
      5        7           0.000070439    0.000001008    0.000100578
 -------------------------------------------------------------------
 Cartesian Forces:  Max     0.000100578 RMS     0.000049775
 Force constants in Cartesian coordinates: 
                1             2             3             4             5 
      1  0.140902D+00
      2  0.159373D+00  0.275375D+00
      3  0.586862D-01  0.649099D-01  0.327376D-01
      4  0.578793D-02 -0.233986D-01  0.358443D-02  0.140918D+00
      5  0.234012D-01 -0.283461D-01  0.103671D-01 -0.159371D+00  0.275340D+00
      6  0.358156D-02 -0.103626D-01  0.146908D-02  0.587131D-01 -0.649433D-01
      7 -0.193085D-02 -0.657096D-03 -0.768644D-02 -0.193132D-02  0.655682D-03
      8  0.164479D-03 -0.706576D-03 -0.106684D-01 -0.165029D-03 -0.705304D-03
      9  0.283075D-02  0.229932D-02  0.283656D-02  0.283018D-02 -0.229859D-02
     10  0.914995D-03  0.981782D-03  0.281749D-02  0.915199D-03 -0.981249D-03
     11  0.303475D-03  0.725851D-03  0.396006D-02 -0.303203D-03  0.725327D-03
     12 -0.160351D-02 -0.213839D-02 -0.239864D-02 -0.160337D-02  0.213808D-02
     13 -0.145672D+00 -0.136303D+00 -0.574034D-01 -0.145687D+00  0.136300D+00
     14 -0.183243D+00 -0.247047D+00 -0.685702D-01  0.183239D+00 -0.247012D+00
     15 -0.634907D-01 -0.547106D-01 -0.346446D-01 -0.635201D-01  0.547392D-01
                6             7             8             9            10 
      6  0.327555D-01
      7 -0.768708D-02  0.458837D-01
      8  0.106671D-01  0.000000D+00  0.547311D-01
      9  0.284120D-02  0.462742D-02  0.167077D-05 -0.106522D-01
     10  0.281812D-02 -0.255788D-01  0.000000D+00 -0.819899D-04  0.152402D-01
     11 -0.395993D-02  0.000000D+00 -0.271088D-01  0.000000D+00  0.000000D+00
     12 -0.240138D-02  0.305233D-02  0.000000D+00 -0.443942D-01 -0.717553D-02
     13 -0.574274D-01 -0.164402D-01  0.000000D+00 -0.102065D-01  0.850698D-02
     14  0.686002D-01  0.150619D-05 -0.262060D-01 -0.255418D-05  0.000000D+00
     15 -0.346644D-01  0.769641D-02  0.000000D+00  0.493843D-01  0.162277D-02
               11            12            13            14            15 
     11  0.143961D-01
     12  0.000000D+00  0.113359D+00
     13  0.000000D+00  0.733000D-02  0.299286D+00
     14  0.112594D-01  0.000000D+00  0.321210D-05  0.508999D+00
     15  0.000000D+00 -0.641798D-01  0.117695D+00 -0.281081D-04  0.841044D-01
 FormGI is forming the generalized inverse of G from B-inverse, IUseBI=4.
 Force constants in internal coordinates: 
                1             2             3             4             5 
      1  0.400774D+00
      2 -0.469624D-02  0.400773D+00
      3  0.330580D-02  0.330638D-02  0.113887D+00
      4 -0.104008D-02 -0.104413D-02  0.693830D-01  0.138385D-01
      5  0.152601D-01  0.152580D-01 -0.102342D-02  0.111939D-02  0.410079D-01
      6 -0.248471D-02 -0.354376D-02  0.333637D-02 -0.660193D-03 -0.152541D-01
      7 -0.352335D-02 -0.248226D-02  0.334088D-02 -0.670424D-03 -0.152702D-01
      8 -0.417926D-02  0.504642D-03  0.460522D-04 -0.154079D-02  0.140650D-02
      9  0.326642D-03  0.213164D-02 -0.303283D-04  0.100827D-02 -0.956741D-03
     10  0.144908D-01  0.144838D-01  0.714884D-03  0.823733D-03  0.350751D-01
                6             7             8             9            10 
      6  0.304216D-01
      7  0.234879D-04  0.304014D-01
      8 -0.141141D-01  0.549874D-02  0.436565D-01
      9 -0.100692D-02  0.667526D-02 -0.238727D-03  0.113551D-01
     10 -0.791399D-02 -0.793868D-02 -0.832294D-03  0.513750D-03  0.327576D-01
 Leave Link  716 at Tue Apr  9 21:41:12 2024, MaxMem=   104857600 cpu:               0.0 elap:               0.0
 (Enter /opt/g16/l103.exe)

 GradGradGradGradGradGradGradGradGradGradGradGradGradGradGradGradGradGrad
 Berny optimization.
 Red2BG is reusing G-inverse.
 Internal  Forces:  Max     0.000097517 RMS     0.000058204
 Search for a saddle point.
 Step number   1 out of a maximum of   20
 All quantities printed in internal units (Hartrees-Bohrs-Radians)
 Swapping is turned off.
 Second derivative matrix not updated -- analytic derivatives used.
 The second derivative matrix:
                          R1        R2        R3        R4        A1
           R1           0.40077
           R2          -0.00470   0.40077
           R3           0.00331   0.00331   0.11389
           R4          -0.00104  -0.00104   0.06938   0.01384
           A1           0.01526   0.01526  -0.00102   0.00112   0.04101
           A2          -0.00248  -0.00354   0.00334  -0.00066  -0.01525
           A3          -0.00352  -0.00248   0.00334  -0.00067  -0.01527
           A4          -0.00418   0.00050   0.00005  -0.00154   0.00141
           A5           0.00033   0.00213  -0.00003   0.00101  -0.00096
           D1           0.01449   0.01448   0.00071   0.00082   0.03508
                          A2        A3        A4        A5        D1
           A2           0.03042
           A3           0.00002   0.03040
           A4          -0.01411   0.00550   0.04366
           A5          -0.00101   0.00668  -0.00024   0.01136
           D1          -0.00791  -0.00794  -0.00083   0.00051   0.03276
 ITU=  0
     Eigenvalues ---   -0.02197   0.00877   0.01820   0.02636   0.05289
     Eigenvalues ---    0.08056   0.14950   0.39906   0.40551
 Eigenvectors required to have negative eigenvalues:
                          R4        R3        A2        A3        A5
   1                    0.88680  -0.45550   0.04582   0.04058  -0.03479
                          A4        A1        D1        R1        R2
   1                    0.02824  -0.01234   0.01020   0.00683   0.00669
 RFO step:  Lambda0=6.935210323D-09 Lambda=-6.69579161D-07.
 Linear search not attempted -- option 19 set.
 Iteration  1 RMS(Cart)=  0.00208110 RMS(Int)=  0.00000560
 Iteration  2 RMS(Cart)=  0.00000369 RMS(Int)=  0.00000303
 Iteration  3 RMS(Cart)=  0.00000000 RMS(Int)=  0.00000303
 ITry= 1 IFail=0 DXMaxC= 3.41D-03 DCOld= 1.00D+10 DXMaxT= 3.00D-01 DXLimC= 3.00D+00 Rises=F
 Variable       Old X    -DE/DX   Delta X   Delta X   Delta X     New X
                                 (Linear)    (Quad)   (Total)
    R1        1.94472  -0.00002   0.00000  -0.00008  -0.00008   1.94464
    R2        1.94472  -0.00002   0.00000  -0.00008  -0.00008   1.94464
    R3        1.73680  -0.00006   0.00000  -0.00073  -0.00073   1.73607
    R4        2.85272  -0.00003   0.00000   0.00067   0.00067   2.85340
    A1        1.79048   0.00009   0.00000   0.00071   0.00071   1.79119
    A2        1.77209  -0.00010   0.00000  -0.00317  -0.00317   1.76892
    A3        1.77219  -0.00010   0.00000  -0.00326  -0.00326   1.76892
    A4        3.13950   0.00000   0.00000  -0.00059  -0.00059   3.13890
    A5        3.14693  -0.00000   0.00000   0.00158   0.00158   3.14851
    D1        1.84280   0.00004   0.00000  -0.00097  -0.00097   1.84183
         Item               Value     Threshold  Converged?
 Maximum Force            0.000098     0.000450     YES
 RMS     Force            0.000058     0.000300     YES
 Maximum Displacement     0.003405     0.001800     NO 
 RMS     Displacement     0.002083     0.001200     NO 
 Predicted change in Energy=-3.313220D-07
 GradGradGradGradGradGradGradGradGradGradGradGradGradGradGradGradGradGrad

 Leave Link  103 at Tue Apr  9 21:41:12 2024, MaxMem=   104857600 cpu:               0.0 elap:               0.0
 (Enter /opt/g16/l202.exe)
                          Input orientation:                          
 ---------------------------------------------------------------------
 Center     Atomic      Atomic             Coordinates (Angstroms)
 Number     Number       Type             X           Y           Z
 ---------------------------------------------------------------------
      1          1           0        0.512133    0.803299    0.437788
      2          1           0        0.512173   -0.803226    0.437829
      3          1           0        0.022921   -0.000022   -1.313199
      4          1           0        0.091229   -0.000046   -2.229346
      5          7           0       -0.082680    0.000015    0.193056
 ---------------------------------------------------------------------
                    Distance matrix (angstroms):
                    1          2          3          4          5
     1  H    0.000000
     2  H    1.606525   0.000000
     3  H    1.987613   1.987613   0.000000
     4  H    2.817113   2.817112   0.918690   0.000000
     5  N    1.029058   1.029058   1.509952   2.428637   0.000000
 Stoichiometry    H4N(1-)
 Framework group  C1[X(H4N)]
 Deg. of freedom     9
 Full point group                 C1      NOp   1
 RotChk:  IX=3 Diff= 1.24D-03
 Largest Abelian subgroup         C1      NOp   1
 Largest concise Abelian subgroup C1      NOp   1
                         Standard orientation:                         
 ---------------------------------------------------------------------
 Center     Atomic      Atomic             Coordinates (Angstroms)
 Number     Number       Type             X           Y           Z
 ---------------------------------------------------------------------
      1          1           0       -0.569051    0.803262    0.446824
      2          1           0       -0.569049   -0.803263    0.446823
      3          1           0        1.193929    0.000001    0.002661
      4          1           0        2.108023   -0.000000    0.094443
      5          7           0       -0.309122    0.000000   -0.141536
 ---------------------------------------------------------------------
 Rotational constants (GHZ):         261.3271520          60.9739252          56.4311820
 Leave Link  202 at Tue Apr  9 21:41:12 2024, MaxMem=   104857600 cpu:               0.0 elap:               0.0
 (Enter /opt/g16/l301.exe)
 Standard basis: STO-3G (5D, 7F)
 Ernie: Thresh=  0.10000D-02 Tol=  0.10000D-05 Strict=F.
 There are     9 symmetry adapted cartesian basis functions of A   symmetry.
 There are     9 symmetry adapted basis functions of A   symmetry.
     9 basis functions,    27 primitive gaussians,     9 cartesian basis functions
     6 alpha electrons        6 beta electrons
       nuclear repulsion energy        12.9913037773 Hartrees.
 IExCor=    0 DFT=F Ex=HF Corr=None ExCW=0 ScaHFX=  1.000000
 ScaDFX=  1.000000  1.000000  1.000000  1.000000 ScalE2=  1.000000  1.000000
 IRadAn=      5 IRanWt=     -1 IRanGd=            0 ICorTp=0 IEmpDi=  4
 NAtoms=    5 NActive=    5 NUniq=    5 SFac= 1.00D+00 NAtFMM=   60 NAOKFM=F Big=F
 Integral buffers will be    131072 words long.
 Raffenetti 1 integral format.
 Two-electron integral symmetry is turned on.
 Leave Link  301 at Tue Apr  9 21:41:12 2024, MaxMem=   104857600 cpu:               0.0 elap:               0.0
 (Enter /opt/g16/l402.exe)
 External calculation of energy, first and second derivatives.
 Running external command "python3 -u ../pes/h4n_anion_pes.py R"
         input file       "/home/jh-li/scratch/g16/Gau-1164322.EIn"
         output file      "/home/jh-li/scratch/g16/Gau-1164322.EOu"
         message file     "/home/jh-li/scratch/g16/Gau-1164322.EMs"
         fchk file        "/home/jh-li/scratch/g16/Gau-1164322.EFC"
         mat. el file     "/home/jh-li/scratch/g16/Gau-1164322.EUF"
 initialization done
 Recovered energy= -57.0001316149     dipole=      0.000000000000      0.000000000000      0.000000000000
 Energy=    -57.0001316     NIter=   0.
 Dipole moment=       0.000000       0.000000       0.000000
 Leave Link  402 at Tue Apr  9 21:41:13 2024, MaxMem=   104857600 cpu:               0.0 elap:               0.3
 (Enter /opt/g16/l716.exe)
 Dipole        = 0.00000000D+00 0.00000000D+00 0.00000000D+00
 ***** Axes restored to original set *****
 -------------------------------------------------------------------
 Center     Atomic                   Forces (Hartrees/Bohr)
 Number     Number              X              Y              Z
 -------------------------------------------------------------------
      1        1           0.000002337    0.000000505    0.000001767
      2        1           0.000002346   -0.000000516    0.000001750
      3        1          -0.000001841   -0.000000099    0.000002231
      4        1          -0.000003998    0.000000055    0.000003175
      5        7           0.000001932    0.000000056    0.000003746
 -------------------------------------------------------------------
 Cartesian Forces:  Max     0.000003998 RMS     0.000002159
 Force constants in Cartesian coordinates: 
                1             2             3             4             5 
      1  0.141423D+00
      2  0.159723D+00  0.275521D+00
      3  0.581462D-01  0.641772D-01  0.322054D-01
      4  0.581111D-02 -0.234534D-01  0.358169D-02  0.141439D+00
      5  0.234553D-01 -0.283108D-01  0.102769D-01 -0.159727D+00  0.275499D+00
      6  0.358100D-02 -0.102752D-01  0.141507D-02  0.581576D-01 -0.641868D-01
      7 -0.193226D-02 -0.666923D-03 -0.769770D-02 -0.193228D-02  0.666466D-03
      8  0.131306D-03 -0.717918D-03 -0.106775D-01 -0.131217D-03 -0.717464D-03
      9  0.282371D-02  0.231136D-02  0.267012D-02  0.282384D-02 -0.231105D-02
     10  0.916736D-03  0.990998D-03  0.281729D-02  0.916799D-03 -0.990845D-03
     11  0.316386D-03  0.732034D-03  0.395683D-02 -0.316467D-03  0.731879D-03
     12 -0.159913D-02 -0.212982D-02 -0.231355D-02 -0.159922D-02  0.212957D-02
     13 -0.146216D+00 -0.136598D+00 -0.568492D-01 -0.146232D+00  0.136600D+00
     14 -0.183627D+00 -0.247223D+00 -0.677350D-01  0.183629D+00 -0.247201D+00
     15 -0.629475D-01 -0.540860D-01 -0.339771D-01 -0.629596D-01  0.540939D-01
                6             7             8             9            10 
      6  0.322119D-01
      7 -0.769827D-02  0.458422D-01
      8  0.106773D-01  0.000000D+00  0.546731D-01
      9  0.266965D-02  0.472870D-02 -0.151591D-05 -0.102380D-01
     10  0.281754D-02 -0.255517D-01  0.000000D+00 -0.269158D-04  0.152242D-01
     11 -0.395686D-02  0.000000D+00 -0.270695D-01  0.000000D+00  0.000000D+00
     12 -0.231343D-02  0.310788D-02  0.000000D+00 -0.446907D-01 -0.732250D-02
     13 -0.568596D-01 -0.164234D-01  0.000000D+00 -0.103494D-01  0.849255D-02
     14  0.677431D-01  0.000000D+00 -0.261638D-01  0.172625D-05  0.000000D+00
     15 -0.339834D-01  0.756201D-02  0.224219D-05  0.496046D-01  0.171546D-02
               11            12            13            14            15 
     11  0.143641D-01
     12  0.259806D-05  0.113581D+00
     13  0.000000D+00  0.741287D-02  0.300373D+00
     14  0.112393D-01 -0.181576D-05 -0.229028D-05  0.509341D+00
     15 -0.204477D-05 -0.642789D-01  0.116633D+00 -0.801060D-05  0.826348D-01
 FormGI is forming the generalized inverse of G from B-inverse, IUseBI=4.
 Force constants in internal coordinates: 
                1             2             3             4             5 
      1  0.400905D+00
      2 -0.471834D-02  0.400904D+00
      3  0.327380D-02  0.327388D-02  0.114130D+00
      4 -0.103455D-02 -0.103977D-02  0.693241D-01  0.138717D-01
      5  0.152587D-01  0.152556D-01 -0.973526D-03  0.106455D-02  0.409373D-01
      6 -0.244457D-02 -0.350349D-02  0.322143D-02 -0.530584D-03 -0.151049D-01
      7 -0.347809D-02 -0.244235D-02  0.322127D-02 -0.538564D-03 -0.151306D-01
      8 -0.417899D-02  0.498528D-03  0.525730D-04 -0.154419D-02  0.138221D-02
      9  0.328176D-03  0.213677D-02 -0.348503D-04  0.100565D-02 -0.947960D-03
     10  0.145121D-01  0.145028D-01  0.676149D-03  0.839200D-03  0.351449D-01
                6             7             8             9            10 
      6  0.305162D-01
      7 -0.374067D-04  0.304976D-01
      8 -0.141250D-01  0.544224D-02  0.436242D-01
      9 -0.101547D-02  0.670844D-02 -0.234284D-03  0.114066D-01
     10 -0.786357D-02 -0.789551D-02 -0.837270D-03  0.505042D-03  0.328660D-01
 Leave Link  716 at Tue Apr  9 21:41:13 2024, MaxMem=   104857600 cpu:               0.0 elap:               0.0
 (Enter /opt/g16/l103.exe)

 GradGradGradGradGradGradGradGradGradGradGradGradGradGradGradGradGradGrad
 Berny optimization.
 Red2BG is reusing G-inverse.
 Internal  Forces:  Max     0.000000405 RMS     0.000000289
 Search for a saddle point.
 Step number   2 out of a maximum of   20
 All quantities printed in internal units (Hartrees-Bohrs-Radians)
 Swapping is turned off.
 Second derivative matrix not updated -- analytic derivatives used.
 The second derivative matrix:
                          R1        R2        R3        R4        A1
           R1           0.40091
           R2          -0.00472   0.40090
           R3           0.00327   0.00327   0.11413
           R4          -0.00103  -0.00104   0.06932   0.01387
           A1           0.01526   0.01526  -0.00097   0.00106   0.04094
           A2          -0.00244  -0.00350   0.00322  -0.00053  -0.01510
           A3          -0.00348  -0.00244   0.00322  -0.00054  -0.01513
           A4          -0.00418   0.00050   0.00005  -0.00154   0.00138
           A5           0.00033   0.00214  -0.00003   0.00101  -0.00095
           D1           0.01451   0.01450   0.00068   0.00084   0.03514
                          A2        A3        A4        A5        D1
           A2           0.03052
           A3          -0.00004   0.03050
           A4          -0.01412   0.00544   0.04362
           A5          -0.00102   0.00671  -0.00023   0.01141
           D1          -0.00786  -0.00790  -0.00084   0.00051   0.03287
 ITU=  0  0
     Eigenvalues ---   -0.02182   0.00881   0.01828   0.02653   0.05290
     Eigenvalues ---    0.08047   0.14965   0.39917   0.40566
 Eigenvectors required to have negative eigenvalues:
                          R4        R3        A2        A3        A5
   1                    0.88747  -0.45490   0.04247   0.03722  -0.03432
                          A4        A1        D1        R1        R2
   1                    0.02800  -0.01201   0.00839   0.00677   0.00663
 RFO step:  Lambda0=1.175888206D-11 Lambda= 0.00000000D+00.
 Linear search not attempted -- option 19 set.
 Iteration  1 RMS(Cart)=  0.00000808 RMS(Int)=  0.00000000
 Iteration  2 RMS(Cart)=  0.00000000 RMS(Int)=  0.00000000
 ITry= 1 IFail=0 DXMaxC= 1.69D-05 DCOld= 1.00D+10 DXMaxT= 3.00D-01 DXLimC= 3.00D+00 Rises=F
 Variable       Old X    -DE/DX   Delta X   Delta X   Delta X     New X
                                 (Linear)    (Quad)   (Total)
    R1        1.94464   0.00000   0.00000   0.00000   0.00000   1.94464
    R2        1.94464   0.00000   0.00000   0.00000   0.00000   1.94464
    R3        1.73607  -0.00000   0.00000   0.00001   0.00001   1.73608
    R4        2.85340   0.00000   0.00000  -0.00002  -0.00002   2.85338
    A1        1.79119   0.00000   0.00000   0.00000   0.00000   1.79119
    A2        1.76892  -0.00000   0.00000  -0.00000  -0.00000   1.76892
    A3        1.76892  -0.00000   0.00000  -0.00000  -0.00000   1.76892
    A4        3.13890  -0.00000   0.00000  -0.00000  -0.00000   3.13890
    A5        3.14851   0.00000   0.00000   0.00000   0.00000   3.14851
    D1        1.84183   0.00000   0.00000   0.00000   0.00000   1.84183
         Item               Value     Threshold  Converged?
 Maximum Force            0.000000     0.000450     YES
 RMS     Force            0.000000     0.000300     YES
 Maximum Displacement     0.000017     0.001800     YES
 RMS     Displacement     0.000008     0.001200     YES
 Predicted change in Energy= 3.500729D-12
 Optimization completed.
    -- Stationary point found.
                           ----------------------------
                           !   Optimized Parameters   !
                           ! (Angstroms and Degrees)  !
 --------------------------                            --------------------------
 ! Name  Definition              Value          Derivative Info.                !
 --------------------------------------------------------------------------------
 ! R1    R(1,5)                  1.0291         -DE/DX =    0.0                 !
 ! R2    R(2,5)                  1.0291         -DE/DX =    0.0                 !
 ! R3    R(3,4)                  0.9187         -DE/DX =    0.0                 !
 ! R4    R(3,5)                  1.51           -DE/DX =    0.0                 !
 ! A1    A(1,5,2)              102.6275         -DE/DX =    0.0                 !
 ! A2    A(1,5,3)              101.3519         -DE/DX =    0.0                 !
 ! A3    A(2,5,3)              101.3518         -DE/DX =    0.0                 !
 ! A4    L(4,3,5,1,-1)         179.846          -DE/DX =    0.0                 !
 ! A5    L(4,3,5,1,-2)         180.3963         -DE/DX =    0.0                 !
 ! D1    D(1,5,3,2)            105.5291         -DE/DX =    0.0                 !
 --------------------------------------------------------------------------------
 Largest change from initial coordinates is atom    2       0.001 Angstoms.
 GradGradGradGradGradGradGradGradGradGradGradGradGradGradGradGradGradGrad

 Leave Link  103 at Tue Apr  9 21:41:13 2024, MaxMem=   104857600 cpu:               0.0 elap:               0.0
 (Enter /opt/g16/l202.exe)
                          Input orientation:                          
 ---------------------------------------------------------------------
 Center     Atomic      Atomic             Coordinates (Angstroms)
 Number     Number       Type             X           Y           Z
 ---------------------------------------------------------------------
      1          1           0        0.512133    0.803299    0.437788
      2          1           0        0.512173   -0.803226    0.437829
      3          1           0        0.022921   -0.000022   -1.313199
      4          1           0        0.091229   -0.000046   -2.229346
      5          7           0       -0.082680    0.000015    0.193056
 ---------------------------------------------------------------------
                    Distance matrix (angstroms):
                    1          2          3          4          5
     1  H    0.000000
     2  H    1.606525   0.000000
     3  H    1.987613   1.987613   0.000000
     4  H    2.817113   2.817112   0.918690   0.000000
     5  N    1.029058   1.029058   1.509952   2.428637   0.000000
 Stoichiometry    H4N(1-)
 Framework group  C1[X(H4N)]
 Deg. of freedom     9
 Full point group                 C1      NOp   1
 RotChk:  IX=3 Diff= 1.43D-08
 Largest Abelian subgroup         C1      NOp   1
 Largest concise Abelian subgroup C1      NOp   1
                         Standard orientation:                         
 ---------------------------------------------------------------------
 Center     Atomic      Atomic             Coordinates (Angstroms)
 Number     Number       Type             X           Y           Z
 ---------------------------------------------------------------------
      1          1           0       -0.569051    0.803262    0.446824
      2          1           0       -0.569049   -0.803263    0.446823
      3          1           0        1.193929    0.000001    0.002661
      4          1           0        2.108023   -0.000000    0.094443
      5          7           0       -0.309122    0.000000   -0.141536
 ---------------------------------------------------------------------
 Rotational constants (GHZ):         261.3271520          60.9739252          56.4311820
 Leave Link  202 at Tue Apr  9 21:41:13 2024, MaxMem=   104857600 cpu:               0.0 elap:               0.0
 (Enter /opt/g16/l601.exe)
 Leave Link  601 at Tue Apr  9 21:41:13 2024, MaxMem=   104857600 cpu:               0.0 elap:               0.0
 (Enter /opt/g16/l716.exe)
 Rotating derivatives to standard orientation.
 Dipole        = 0.00000000D+00 0.00000000D+00 0.00000000D+00
 Full mass-weighted force constant matrix:
 Low frequencies --- -851.3192  -53.1848   -1.3086   -0.0920    0.3326    6.4011
 Low frequencies ---   12.2979  373.0276  409.5315
 ******    1 imaginary frequencies (negative Signs) ****** 
 Diagonal vibrational polarizability:
        0.0000000       0.0000000       0.0000000
 Harmonic frequencies (cm**-1), IR intensities (KM/Mole), Raman scattering
 activities (A**4/AMU), depolarization ratios for plane and unpolarized
 incident light, reduced masses (AMU), force constants (mDyne/A),
 and normal coordinates:
                      1                      2                      3
                      A                      A                      A
 Frequencies --   -851.3192               373.0270               409.5314
 Red. masses --      1.0881                 1.0285                 1.1439
 Frc consts  --      0.4646                 0.0843                 0.1130
 IR Inten    --      0.0000                 0.0000                 0.0000
  Atom  AN      X      Y      Z        X      Y      Z        X      Y      Z
     1   1    -0.07  -0.00   0.01     0.62   0.07   0.12     0.59  -0.02   0.27
     2   1    -0.07   0.00   0.01    -0.62   0.07  -0.12     0.59   0.02   0.27
     3   1     0.95   0.00   0.10     0.00  -0.04  -0.00    -0.00   0.00  -0.02
     4   1     0.27  -0.00  -0.01     0.00   0.45   0.00    -0.07  -0.00   0.36
     5   7    -0.08  -0.00  -0.01    -0.00  -0.04  -0.00    -0.08   0.00  -0.06
                      4                      5                      6
                      A                      A                      A
 Frequencies --   1277.1141              1384.2573              1509.8279
 Red. masses --      1.0325                 1.0222                 1.0797
 Frc consts  --      0.9922                 1.1540                 1.4502
 IR Inten    --      0.0000                 0.0000                 0.0000
  Atom  AN      X      Y      Z        X      Y      Z        X      Y      Z
     1   1     0.07  -0.06   0.11     0.17   0.01   0.02    -0.27  -0.42   0.48
     2   1     0.07   0.06   0.11    -0.17   0.01  -0.02    -0.27   0.42   0.48
     3   1    -0.11   0.00   0.85     0.00   0.87   0.00     0.00   0.00  -0.15
     4   1     0.05   0.00  -0.47    -0.00  -0.43  -0.00    -0.00  -0.00   0.07
     5   7    -0.01  -0.00  -0.04     0.00  -0.03   0.00     0.04   0.00  -0.06
                      7                      8                      9
                      A                      A                      A
 Frequencies --   1860.0039              3305.8232              3400.4883
 Red. masses --      1.0323                 1.0493                 1.0891
 Frc consts  --      2.1041                 6.7561                 7.4196
 IR Inten    --      0.0000                 0.0000                 0.0000
  Atom  AN      X      Y      Z        X      Y      Z        X      Y      Z
     1   1    -0.02  -0.01  -0.00    -0.16   0.59   0.36    -0.18   0.55   0.40
     2   1    -0.02   0.01  -0.00    -0.16  -0.59   0.36     0.18   0.55  -0.40
     3   1    -0.31   0.00  -0.04    -0.01  -0.00  -0.01     0.00  -0.01   0.00
     4   1     0.94  -0.00   0.09     0.01  -0.00   0.01    -0.00   0.00  -0.00
     5   7    -0.04  -0.00  -0.00     0.02  -0.00  -0.05     0.00  -0.08   0.00

 -------------------
 - Thermochemistry -
 -------------------
 Temperature   298.150 Kelvin.  Pressure   1.00000 Atm.
 Atom     1 has atomic number  1 and mass   1.00783
 Atom     2 has atomic number  1 and mass   1.00783
 Atom     3 has atomic number  1 and mass   1.00783
 Atom     4 has atomic number  1 and mass   1.00783
 Atom     5 has atomic number  7 and mass  14.00307
 Molecular mass:    18.03437 amu.
 Principal axes and moments of inertia in atomic units:
                           1         2         3
     Eigenvalues --     6.90606  29.59857  31.98128
           X            0.99965  -0.00000  -0.02662
           Y            0.00000   1.00000  -0.00000
           Z            0.02662   0.00000   0.99965
 This molecule is an asymmetric top.
 Rotational symmetry number  1.
 Rotational temperatures (Kelvin)     12.54173     2.92629     2.70827
 Rotational constants (GHZ):         261.32715    60.97393    56.43118
    1 imaginary frequencies ignored.
 Zero-point vibrational energy      80868.0 (Joules/Mol)
                                   19.32791 (Kcal/Mol)
 Warning -- explicit consideration of   2 degrees of freedom as
           vibrations may cause significant error
 Vibrational temperatures:    536.70   589.22  1837.48  1991.64  2172.31
          (Kelvin)           2676.13  4756.34  4892.54
 
 Zero-point correction=                           0.030801 (Hartree/Particle)
 Thermal correction to Energy=                    0.034296
 Thermal correction to Enthalpy=                  0.035240
 Thermal correction to Gibbs Free Energy=         0.009962
 Sum of electronic and zero-point Energies=            -56.969331
 Sum of electronic and thermal Energies=               -56.965835
 Sum of electronic and thermal Enthalpies=             -56.964891
 Sum of electronic and thermal Free Energies=          -56.990170
 
                     E (Thermal)             CV                S
                      KCal/Mol        Cal/Mol-Kelvin    Cal/Mol-Kelvin
 Total                   21.521              9.303             53.203
 Electronic               0.000              0.000              0.000
 Translational            0.889              2.981             34.612
 Rotational               0.889              2.981             16.532
 Vibrational             19.744              3.341              2.059
 Vibration     1          0.744              1.528              1.067
 Vibration     2          0.774              1.450              0.928
                       Q            Log10(Q)             Ln(Q)
 Total Bot       0.261668D-04         -4.582250        -10.551020
 Total V=0       0.384779D+10          9.585211         22.070764
 Vib (Bot)       0.949731D-14        -14.022399        -32.287768
 Vib (Bot)    1  0.487047D+00         -0.312429         -0.719395
 Vib (Bot)    2  0.432162D+00         -0.364353         -0.838955
 Vib (V=0)       0.139657D+01          0.145061          0.334016
 Vib (V=0)    1  0.119801D+01          0.078460          0.180660
 Vib (V=0)    2  0.116088D+01          0.064788          0.149179
 Electronic      0.100000D+01          0.000000          0.000000
 Translational   0.301027D+07          6.478605         14.917540
 Rotational      0.915259D+03          2.961544          6.819207
 ***** Axes restored to original set *****
 -------------------------------------------------------------------
 Center     Atomic                   Forces (Hartrees/Bohr)
 Number     Number              X              Y              Z
 -------------------------------------------------------------------
      1        1           0.000002337    0.000000505    0.000001767
      2        1           0.000002346   -0.000000516    0.000001750
      3        1          -0.000001841   -0.000000099    0.000002231
      4        1          -0.000003998    0.000000055    0.000003175
      5        7           0.000001932    0.000000056    0.000003746
 -------------------------------------------------------------------
 Cartesian Forces:  Max     0.000003998 RMS     0.000002159
 Force constants in Cartesian coordinates: 
                1             2             3             4             5 
      1  0.141423D+00
      2  0.159723D+00  0.275521D+00
      3  0.581462D-01  0.641772D-01  0.322054D-01
      4  0.581111D-02 -0.234534D-01  0.358169D-02  0.141439D+00
      5  0.234553D-01 -0.283108D-01  0.102769D-01 -0.159727D+00  0.275499D+00
      6  0.358100D-02 -0.102752D-01  0.141507D-02  0.581576D-01 -0.641868D-01
      7 -0.193226D-02 -0.666923D-03 -0.769770D-02 -0.193228D-02  0.666466D-03
      8  0.131306D-03 -0.717918D-03 -0.106775D-01 -0.131217D-03 -0.717464D-03
      9  0.282371D-02  0.231136D-02  0.267012D-02  0.282384D-02 -0.231105D-02
     10  0.916736D-03  0.990998D-03  0.281729D-02  0.916799D-03 -0.990845D-03
     11  0.316386D-03  0.732034D-03  0.395683D-02 -0.316467D-03  0.731879D-03
     12 -0.159913D-02 -0.212982D-02 -0.231355D-02 -0.159922D-02  0.212957D-02
     13 -0.146216D+00 -0.136598D+00 -0.568492D-01 -0.146232D+00  0.136600D+00
     14 -0.183627D+00 -0.247223D+00 -0.677350D-01  0.183629D+00 -0.247201D+00
     15 -0.629475D-01 -0.540860D-01 -0.339771D-01 -0.629596D-01  0.540939D-01
                6             7             8             9            10 
      6  0.322119D-01
      7 -0.769827D-02  0.458422D-01
      8  0.106773D-01  0.000000D+00  0.546731D-01
      9  0.266965D-02  0.472870D-02 -0.151591D-05 -0.102380D-01
     10  0.281754D-02 -0.255517D-01  0.000000D+00 -0.269158D-04  0.152242D-01
     11 -0.395686D-02  0.000000D+00 -0.270695D-01  0.000000D+00  0.000000D+00
     12 -0.231343D-02  0.310788D-02  0.000000D+00 -0.446907D-01 -0.732250D-02
     13 -0.568596D-01 -0.164234D-01  0.000000D+00 -0.103494D-01  0.849255D-02
     14  0.677431D-01  0.000000D+00 -0.261638D-01  0.172625D-05  0.000000D+00
     15 -0.339834D-01  0.756201D-02  0.224219D-05  0.496046D-01  0.171546D-02
               11            12            13            14            15 
     11  0.143641D-01
     12  0.259806D-05  0.113581D+00
     13  0.000000D+00  0.741287D-02  0.300373D+00
     14  0.112393D-01 -0.181576D-05 -0.229028D-05  0.509341D+00
     15 -0.204477D-05 -0.642789D-01  0.116633D+00 -0.801060D-05  0.826348D-01
 Red2BG is reusing G-inverse.
 Force constants in internal coordinates: 
                1             2             3             4             5 
      1  0.400905D+00
      2 -0.471834D-02  0.400904D+00
      3  0.327380D-02  0.327388D-02  0.114130D+00
      4 -0.103455D-02 -0.103977D-02  0.693241D-01  0.138717D-01
      5  0.152587D-01  0.152556D-01 -0.973526D-03  0.106455D-02  0.409373D-01
      6 -0.244457D-02 -0.350349D-02  0.322143D-02 -0.530584D-03 -0.151049D-01
      7 -0.347809D-02 -0.244235D-02  0.322127D-02 -0.538564D-03 -0.151306D-01
      8 -0.417899D-02  0.498528D-03  0.525730D-04 -0.154419D-02  0.138221D-02
      9  0.328176D-03  0.213677D-02 -0.348503D-04  0.100565D-02 -0.947960D-03
     10  0.145121D-01  0.145028D-01  0.676149D-03  0.839200D-03  0.351449D-01
                6             7             8             9            10 
      6  0.305162D-01
      7 -0.374067D-04  0.304976D-01
      8 -0.141250D-01  0.544224D-02  0.436242D-01
      9 -0.101547D-02  0.670844D-02 -0.234284D-03  0.114066D-01
     10 -0.786357D-02 -0.789551D-02 -0.837270D-03  0.505042D-03  0.328660D-01
 Leave Link  716 at Tue Apr  9 21:41:13 2024, MaxMem=   104857600 cpu:               0.0 elap:               0.0
 (Enter /opt/g16/l9999.exe)
 Unable to Open any file for archive entry.
 1\1\GINC-DESKTOP-1D9QDE1\Freq\External='python3 -u ../pes/h4n_anion_pe
 s.py'\ZDO\H4N1(1-)\JH-LI\09-Apr-2024\0\\#p external="python3 -u ../pes
 /h4n_anion_pes.py" opt=(nomicro,ts,noeigen,calcall)\\H2 + NH2^- -> H^-
  + NH3\\-1,1\H,0.5121326304,0.8032986927,0.4377881013\H,0.5121726481,-
 0.803226386,0.4378292514\H,0.0229208667,-0.0000215046,-1.3131989973\H,
 0.0912285575,-0.0000458281,-2.2293461715\N,-0.0826798593,0.0000150434,
 0.1930560918\\Version=ES64L-G16RevC.01\HF=-57.0001316\RMSD=0.000e+00\R
 MSF=2.159e-06\ZeroPoint=0.030801\Thermal=0.0342963\ETot=-56.9658353\HT
 ot=-56.9648911\GTot=-56.9901695\Dipole=0.,0.,0.\PG=C01 [X(H4N1)]\NImag
 =1\\0.14142270,0.15972297,0.27552137,0.05814622,0.06417724,0.03220536,
 0.00581111,-0.02345344,0.00358169,0.14143865,0.02345531,-0.02831076,0.
 01027689,-0.15972672,0.27549892,0.00358100,-0.01027520,0.00141507,0.05
 815761,-0.06418682,0.03221194,-0.00193226,-0.00066692,-0.00769770,-0.0
 0193228,0.00066647,-0.00769827,0.04584225,0.00013131,-0.00071792,-0.01
 067749,-0.00013122,-0.00071746,0.01067730,-0.00000011,0.05467310,0.002
 82371,0.00231136,0.00267012,0.00282384,-0.00231105,0.00266965,0.004728
 70,-0.00000152,-0.01023799,0.00091674,0.00099100,0.00281729,0.00091680
 ,-0.00099084,0.00281754,-0.02555171,0.00000005,-0.00002692,0.01522424,
 0.00031639,0.00073203,0.00395683,-0.00031647,0.00073188,-0.00395686,0.
 00000013,-0.02706948,-0.00000052,-0.00000018,0.01436406,-0.00159913,-0
 .00212982,-0.00231355,-0.00159922,0.00212957,-0.00231343,0.00310788,-0
 .00000054,-0.04469074,-0.00732250,0.00000260,0.11358117,-0.14621592,-0
 .13659819,-0.05684920,-0.14623192,0.13660037,-0.05685958,-0.01642344,-
 0.00000003,-0.01034944,0.00849255,0.00000014,0.00741287,0.30037286,-0.
 18362719,-0.24722266,-0.06773495,0.18362907,-0.24720052,0.06774305,0.0
 0000044,-0.02616382,0.00000173,-0.00000002,0.01123929,-0.00000182,-0.0
 0000229,0.50934136,-0.06294750,-0.05408604,-0.03397713,-0.06295962,0.0
 5409385,-0.03398338,0.00756201,0.00000224,0.04960463,0.00171546,-0.000
 00204,-0.06427889,0.11663324,-0.00000801,0.08263482\\-0.00000234,-0.00
 000050,-0.00000177,-0.00000235,0.00000052,-0.00000175,0.00000184,0.000
 00010,-0.00000223,0.00000400,-0.00000005,-0.00000317,-0.00000193,-0.00
 000006,-0.00000375\\\@
 The archive entry for this job was punched.


 ALL THINGS ARE POSSIBLE EXCEPT SKIING THROUGH A REVOLVING DOOR.
 Job cpu time:       0 days  0 hours  0 minutes  0.6 seconds.
 Elapsed time:       0 days  0 hours  0 minutes  1.2 seconds.
 File lengths (MBytes):  RWF=      6 Int=      0 D2E=      0 Chk=      1 Scr=      1
 Normal termination of Gaussian 16 at Tue Apr  9 21:41:13 2024.
