 Entering Gaussian System, Link 0=g16
 Initial command:
 /opt/g16/l1.exe "/home/jh-li/scratch/g16/Gau-1169492.inp" -scrdir="/home/jh-li/scratch/g16/"
 Entering Link 1 = /opt/g16/l1.exe PID=   1169495.
  
 Copyright (c) 1988-2019, Gaussian, Inc.  All Rights Reserved.
  
 This is part of the Gaussian(R) 16 program.  It is based on
 the Gaussian(R) 09 system (copyright 2009, Gaussian, Inc.),
 the Gaussian(R) 03 system (copyright 2003, Gaussian, Inc.),
 the Gaussian(R) 98 system (copyright 1998, Gaussian, Inc.),
 the Gaussian(R) 94 system (copyright 1995, Gaussian, Inc.),
 the Gaussian 92(TM) system (copyright 1992, Gaussian, Inc.),
 the Gaussian 90(TM) system (copyright 1990, Gaussian, Inc.),
 the Gaussian 88(TM) system (copyright 1988, Gaussian, Inc.),
 the Gaussian 86(TM) system (copyright 1986, Carnegie Mellon
 University), and the Gaussian 82(TM) system (copyright 1983,
 Carnegie Mellon University). Gaussian is a federally registered
 trademark of Gaussian, Inc.
  
 This software contains proprietary and confidential information,
 including trade secrets, belonging to Gaussian, Inc.
  
 This software is provided under written license and may be
 used, copied, transmitted, or stored only in accord with that
 written license.
  
 The following legend is applicable only to US Government
 contracts under FAR:
  
                    RESTRICTED RIGHTS LEGEND
  
 Use, reproduction and disclosure by the US Government is
 subject to restrictions as set forth in subparagraphs (a)
 and (c) of the Commercial Computer Software - Restricted
 Rights clause in FAR 52.227-19.
  
 Gaussian, Inc.
 340 Quinnipiac St., Bldg. 40, Wallingford CT 06492
  
  
 ---------------------------------------------------------------
 Warning -- This program may not be used in any manner that
 competes with the business of Gaussian, Inc. or will provide
 assistance to any competitor of Gaussian, Inc.  The licensee
 of this program is prohibited from giving any competitor of
 Gaussian, Inc. access to this program.  By using this program,
 the user acknowledges that Gaussian, Inc. is engaged in the
 business of creating and licensing software in the field of
 computational chemistry and represents and warrants to the
 licensee that it is not a competitor of Gaussian, Inc. and that
 it will not use this program in any manner prohibited above.
 ---------------------------------------------------------------
  

 Cite this work as:
 Gaussian 16, Revision C.01,
 M. J. Frisch, G. W. Trucks, H. B. Schlegel, G. E. Scuseria, 
 M. A. Robb, J. R. Cheeseman, G. Scalmani, V. Barone, 
 G. A. Petersson, H. Nakatsuji, X. Li, M. Caricato, A. V. Marenich, 
 J. Bloino, B. G. Janesko, R. Gomperts, B. Mennucci, H. P. Hratchian, 
 J. V. Ortiz, A. F. Izmaylov, J. L. Sonnenberg, D. Williams-Young, 
 F. Ding, F. Lipparini, F. Egidi, J. Goings, B. Peng, A. Petrone, 
 T. Henderson, D. Ranasinghe, V. G. Zakrzewski, J. Gao, N. Rega, 
 G. Zheng, W. Liang, M. Hada, M. Ehara, K. Toyota, R. Fukuda, 
 J. Hasegawa, M. Ishida, T. Nakajima, Y. Honda, O. Kitao, H. Nakai, 
 T. Vreven, K. Throssell, J. A. Montgomery, Jr., J. E. Peralta, 
 F. Ogliaro, M. J. Bearpark, J. J. Heyd, E. N. Brothers, K. N. Kudin, 
 V. N. Staroverov, T. A. Keith, R. Kobayashi, J. Normand, 
 K. Raghavachari, A. P. Rendell, J. C. Burant, S. S. Iyengar, 
 J. Tomasi, M. Cossi, J. M. Millam, M. Klene, C. Adamo, R. Cammi, 
 J. W. Ochterski, R. L. Martin, K. Morokuma, O. Farkas, 
 J. B. Foresman, and D. J. Fox, Gaussian, Inc., Wallingford CT, 2019.
 
 ******************************************
 Gaussian 16:  ES64L-G16RevC.01  3-Jul-2019
                 9-Apr-2024 
 ******************************************
 %nproc=1
 Will use up to    1 processors via shared memory.
 %oldchk=ts1-opt-freq.chk
 Copying data from "ts1-opt-freq.chk" to current chk file "/home/jh-li/scratch/g16/Gau-1169495.chk"
 IOpt=  2 FromEx=T IUOpen= 4 IOptOp= 5 NList=   0 IFRang= 0 IUIn= 4 IUOut= 2.
 ----------------------------------------------------------------------
 #p external="python3 -u ../pes/h4n_anion_pes.py" irc=(calcall,stepsize
 =3,maxpoint=100) geom=allcheck
 ----------------------------------------------------------------------
 1/6=10,10=4,18=10,26=1,29=7,38=1,39=3,42=100,44=3,71=1,172=1/1,23;
 2/12=2,29=1,40=1/2;
 3/11=9,14=-4,25=1,30=1,41=9900000,43=2,71=2,140=1/1;
 4/20=17,22=1002,24=3,113=1,114=1/2;
 6/7=2,8=2,9=2,10=2,18=1/1;
 7/25=1,44=-1/16;
 1/6=10,10=4,18=10,26=1,39=3,42=100,44=3,71=1/23(2);
 2/29=1/2;
 99/5=20/99;
 2/29=1/2;
 3/11=9,14=-2,25=1,30=1,41=9900000,43=2,71=2,140=1/1;
 4/16=2,20=17,22=1002,24=3,113=1,114=1/2;
 7/25=1,44=-1/16;
 1/6=10,10=4,18=10,26=1,39=3,42=100,44=3,71=1/23(-4);
 2/29=1/2;
 6/7=2,8=2,9=2,10=2,18=1/1;
 99/5=20/99;
 Leave Link    1 at Tue Apr  9 21:53:32 2024, MaxMem=   104857600 cpu:               0.0 elap:               0.0
 (Enter /opt/g16/l101.exe)
 Structure from the checkpoint file:  "/home/jh-li/scratch/g16/Gau-1169495.chk"
 -----------------------
 H2 + NH2^- -> H^- + NH3
 -----------------------
 Charge = -1 Multiplicity = 1
 Redundant internal coordinates found in file.  (old form).
 H,0,0.5121326304,0.8032986927,0.4377881013
 H,0,0.5121726481,-0.803226386,0.4378292514
 H,0,0.0229208667,-0.0000215046,-1.3131989973
 H,0,0.0912285575,-0.0000458281,-2.2293461715
 N,0,-0.0826798593,0.0000150434,0.1930560918
 Recover connectivity data from disk.
 ITRead=  0  0  0  0  0
 MicOpt= -1 -1 -1 -1 -1
 NAtoms=      5 NQM=        5 NQMF=       0 NMMI=      0 NMMIF=      0
                NMic=       0 NMicF=      0.
                    Isotopes and Nuclear Properties:
 (Nuclear quadrupole moments (NQMom) in fm**2, nuclear magnetic moments (NMagM)
  in nuclear magnetons)

  Atom         1           2           3           4           5
 IAtWgt=           1           1           1           1          14
 AtmWgt=   1.0078250   1.0078250   1.0078250   1.0078250  14.0030740
 NucSpn=           1           1           1           1           2
 AtZEff=   1.0000000   1.0000000   1.0000000   1.0000000   4.5500000
 NQMom=    0.0000000   0.0000000   0.0000000   0.0000000   2.0440000
 NMagM=    2.7928460   2.7928460   2.7928460   2.7928460   0.4037610
 AtZNuc=   1.0000000   1.0000000   1.0000000   1.0000000   7.0000000
 Leave Link  101 at Tue Apr  9 21:53:32 2024, MaxMem=   104857600 cpu:               0.2 elap:               0.2
 (Enter /opt/g16/l123.exe)
 IRC-IRC-IRC-IRC-IRC-IRC-IRC-IRC-IRC-IRC-IRC-IRC-IRC-IRC-IRC-IRC-IRC-IRC
 ------------------------------------------------------------------------
 INPUT DATA FOR L123
 ------------------------------------------------------------------------
 GENERAL PARAMETERS:
 Follow reaction path in both directions.
 Maximum points per path      = 100
 Step size                    =   0.030 bohr
 Integration scheme           = HPC                                 
    Redo corrector integration= Yes                                 
    DWI Weight Power          =  2
    DWI will use Hessian update vectors when possible.
    Max correction cycles     =  10
 Initial Hessian              = CalcFC
 Hessian evaluation           = Analytic at all predictor steps
                              = Update at all corrector steps
 Hessian updating method      = Bofill                              
 ------------------------------------------------------------------------
 IRC-IRC-IRC-IRC-IRC-IRC-IRC-IRC-IRC-IRC-IRC-IRC-IRC-IRC-IRC-IRC-IRC-IRC
 Leave Link  123 at Tue Apr  9 21:53:33 2024, MaxMem=   104857600 cpu:               0.0 elap:               0.0
 (Enter /opt/g16/l202.exe)
                          Input orientation:                          
 ---------------------------------------------------------------------
 Center     Atomic      Atomic             Coordinates (Angstroms)
 Number     Number       Type             X           Y           Z
 ---------------------------------------------------------------------
      1          1           0        0.512133    0.803299    0.437788
      2          1           0        0.512173   -0.803226    0.437829
      3          1           0        0.022921   -0.000022   -1.313199
      4          1           0        0.091229   -0.000046   -2.229346
      5          7           0       -0.082680    0.000015    0.193056
 ---------------------------------------------------------------------
                    Distance matrix (angstroms):
                    1          2          3          4          5
     1  H    0.000000
     2  H    1.606525   0.000000
     3  H    1.987613   1.987613   0.000000
     4  H    2.817113   2.817112   0.918690   0.000000
     5  N    1.029058   1.029058   1.509952   2.428637   0.000000
 Symmetry turned off by external request.
 Stoichiometry    H4N(1-)
 Framework group  C1[X(H4N)]
 Deg. of freedom     9
 Full point group                 C1      NOp   1
 Rotational constants (GHZ):         261.3271520          60.9739252          56.4311820
 Leave Link  202 at Tue Apr  9 21:53:33 2024, MaxMem=   104857600 cpu:               0.0 elap:               0.0
 (Enter /opt/g16/l301.exe)
 Standard basis: STO-3G (5D, 7F)
 Ernie: Thresh=  0.10000D-02 Tol=  0.10000D-05 Strict=F.
     9 basis functions,    27 primitive gaussians,     9 cartesian basis functions
     6 alpha electrons        6 beta electrons
       nuclear repulsion energy        12.9913037773 Hartrees.
 IExCor=    0 DFT=F Ex=HF Corr=None ExCW=0 ScaHFX=  1.000000
 ScaDFX=  1.000000  1.000000  1.000000  1.000000 ScalE2=  1.000000  1.000000
 IRadAn=      5 IRanWt=     -1 IRanGd=            0 ICorTp=0 IEmpDi=  4
 NAtoms=    5 NActive=    5 NUniq=    5 SFac= 1.00D+00 NAtFMM=   60 NAOKFM=F Big=F
 Integral buffers will be    131072 words long.
 Raffenetti 1 integral format.
 Two-electron integral symmetry is turned off.
 Leave Link  301 at Tue Apr  9 21:53:33 2024, MaxMem=   104857600 cpu:               0.0 elap:               0.0
 (Enter /opt/g16/l402.exe)
 External calculation of energy, first and second derivatives.
 Running external command "python3 -u ../pes/h4n_anion_pes.py R"
         input file       "/home/jh-li/scratch/g16/Gau-1169495.EIn"
         output file      "/home/jh-li/scratch/g16/Gau-1169495.EOu"
         message file     "/home/jh-li/scratch/g16/Gau-1169495.EMs"
         fchk file        "/home/jh-li/scratch/g16/Gau-1169495.EFC"
         mat. el file     "/home/jh-li/scratch/g16/Gau-1169495.EUF"
 initialization done
 Recovered energy= -57.0001316149     dipole=      0.000000000000      0.000000000000      0.000000000000
 NRF= 0 NRA=   0 NVA=   0 HaveQM=F NVQ=       0
 Convergence limit is  0.750E-04 MaxStp= 10000 StMxLn= 3.00D-04 StpMin= 1.00D-06.
 Convergence criteria             0.00011250 0.00007500 0.00045000 0.00030000
  Step  NS  ND Rises OKQ   Scale  Max. Force  RMS Force Max. Disp.  RMS Disp.     Energy   Flag
     1   0   0   F    T  1.00D+00 0.00000000 0.00000000 0.00000000 0.00000000  -57.0001316 ====
 Running external command "python3 -u ../pes/h4n_anion_pes.py R"
         input file       "/home/jh-li/scratch/g16/Gau-1169495.EIn"
         output file      "/home/jh-li/scratch/g16/Gau-1169495.EOu"
         message file     "/home/jh-li/scratch/g16/Gau-1169495.EMs"
         fchk file        "/home/jh-li/scratch/g16/Gau-1169495.EFC"
         mat. el file     "/home/jh-li/scratch/g16/Gau-1169495.EUF"
 initialization done
 Recovered energy= -57.0001316149     dipole=      0.000000000000      0.000000000000      0.000000000000
 Energy=    -57.0001316     NIter=   0.
 Dipole moment=       0.000000       0.000000       0.000000
 Leave Link  402 at Tue Apr  9 21:53:33 2024, MaxMem=   104857600 cpu:               0.0 elap:               0.5
 (Enter /opt/g16/l601.exe)
 Leave Link  601 at Tue Apr  9 21:53:33 2024, MaxMem=   104857600 cpu:               0.0 elap:               0.0
 (Enter /opt/g16/l716.exe)
 Dipole        = 0.00000000D+00 0.00000000D+00 0.00000000D+00
 -------------------------------------------------------------------
 Center     Atomic                   Forces (Hartrees/Bohr)
 Number     Number              X              Y              Z
 -------------------------------------------------------------------
      1        1           0.000003066    0.000000507    0.000002018
      2        1           0.000003080   -0.000000514    0.000002000
      3        1          -0.000002811   -0.000000101    0.000002539
      4        1          -0.000003181    0.000000056    0.000002941
      5        7           0.000000156    0.000000052    0.000003302
 -------------------------------------------------------------------
 Cartesian Forces:  Max     0.000003302 RMS     0.000002184
 Force constants in Cartesian coordinates: 
                1             2             3             4             5 
      1  0.141424D+00
      2  0.159726D+00  0.275521D+00
      3  0.581454D-01  0.641782D-01  0.322087D-01
      4  0.581112D-02 -0.234535D-01  0.358164D-02  0.141440D+00
      5  0.234554D-01 -0.283108D-01  0.102769D-01 -0.159729D+00  0.275499D+00
      6  0.358095D-02 -0.102752D-01  0.141520D-02  0.581568D-01 -0.641878D-01
      7 -0.193222D-02 -0.666919D-03 -0.769766D-02 -0.193225D-02  0.666462D-03
      8  0.131305D-03 -0.717918D-03 -0.106775D-01 -0.131217D-03 -0.717464D-03
      9  0.282376D-02  0.231138D-02  0.267026D-02  0.282389D-02 -0.231107D-02
     10  0.916736D-03  0.991001D-03  0.281728D-02  0.916799D-03 -0.990848D-03
     11  0.316390D-03  0.732034D-03  0.395682D-02 -0.316471D-03  0.731880D-03
     12 -0.159915D-02 -0.212982D-02 -0.231359D-02 -0.159923D-02  0.212958D-02
     13 -0.146218D+00 -0.136601D+00 -0.568483D-01 -0.146234D+00  0.136603D+00
     14 -0.183630D+00 -0.247223D+00 -0.677360D-01  0.183632D+00 -0.247201D+00
     15 -0.629466D-01 -0.540870D-01 -0.339810D-01 -0.629588D-01  0.540948D-01
                6             7             8             9            10 
      6  0.322153D-01
      7 -0.769822D-02  0.458434D-01
      8  0.106773D-01  0.000000D+00  0.546731D-01
      9  0.266980D-02  0.472608D-02 -0.151820D-05 -0.102359D-01
     10  0.281753D-02 -0.255530D-01  0.000000D+00 -0.251527D-04  0.152255D-01
     11 -0.395685D-02  0.000000D+00 -0.270695D-01  0.000000D+00  0.000000D+00
     12 -0.231346D-02  0.311000D-02  0.000000D+00 -0.446928D-01 -0.732435D-02
     13 -0.568587D-01 -0.164236D-01  0.000000D+00 -0.103491D-01  0.849252D-02
     14  0.677441D-01  0.000000D+00 -0.261638D-01  0.172722D-05  0.000000D+00
     15 -0.339872D-01  0.756221D-02  0.224223D-05  0.496042D-01  0.171552D-02
               11            12            13            14            15 
     11  0.143641D-01
     12  0.259584D-05  0.113583D+00
     13  0.000000D+00  0.741302D-02  0.300377D+00
     14  0.112393D-01 -0.181571D-05 -0.228860D-05  0.509341D+00
     15 -0.204419D-05 -0.642789D-01  0.116631D+00 -0.800673D-05  0.826436D-01
 Leave Link  716 at Tue Apr  9 21:53:33 2024, MaxMem=   104857600 cpu:               0.0 elap:               0.0
 (Enter /opt/g16/l123.exe)
 IRC-IRC-IRC-IRC-IRC-IRC-IRC-IRC-IRC-IRC-IRC-IRC-IRC-IRC-IRC-IRC-IRC-IRC
          ******** Start new reaction path calculation ********
 Current Structure is TS -> form Hessian eigenvectors.
                            Diagonalizing Hessian.
 Supplied step size of   0.0300 bohr.
    Integration on MW PES will use step size of   0.0313 sqrt(amu)*bohr.
 Point Number:   0          Path Number:   1
 Calculating another point on the path.
 Point Number  1 in FORWARD path direction.
 Using LQA Reaction Path Following.
 IRC-IRC-IRC-IRC-IRC-IRC-IRC-IRC-IRC-IRC-IRC-IRC-IRC-IRC-IRC-IRC-IRC-IRC
 Leave Link  123 at Tue Apr  9 21:53:33 2024, MaxMem=   104857600 cpu:               0.0 elap:               0.0
 (Enter /opt/g16/l202.exe)
                          Input orientation:                          
 ---------------------------------------------------------------------
 Center     Atomic      Atomic             Coordinates (Angstroms)
 Number     Number       Type             X           Y           Z
 ---------------------------------------------------------------------
      1          1           0        0.512945    0.803265    0.437958
      2          1           0        0.512985   -0.803216    0.437999
      3          1           0        0.024653   -0.000034   -1.329198
      4          1           0        0.091590   -0.000058   -2.234427
      5          7           0       -0.082204    0.000003    0.193436
 ---------------------------------------------------------------------
                    Distance matrix (angstroms):
                    1          2          3          4          5
     1  H    0.000000
     2  H    1.606481   0.000000
     3  H    2.001638   2.001638   0.000000
     4  H    2.822145   2.822144   0.907700   0.000000
     5  N    1.029185   1.029185   1.526379   2.434075   0.000000
 Symmetry turned off by external request.
 Stoichiometry    H4N(1-)
 Framework group  C1[X(H4N)]
 Deg. of freedom     9
 Full point group                 C1      NOp   1
 Rotational constants (GHZ):         261.2381574          60.4736601          56.0073997
 Leave Link  202 at Tue Apr  9 21:53:33 2024, MaxMem=   104857600 cpu:               0.0 elap:               0.0
 (Enter /opt/g16/l301.exe)
 Standard basis: STO-3G (5D, 7F)
 Ernie: Thresh=  0.10000D-02 Tol=  0.10000D-05 Strict=F.
     9 basis functions,    27 primitive gaussians,     9 cartesian basis functions
     6 alpha electrons        6 beta electrons
       nuclear repulsion energy        12.9631872908 Hartrees.
 IExCor=    0 DFT=F Ex=HF Corr=None ExCW=0 ScaHFX=  1.000000
 ScaDFX=  1.000000  1.000000  1.000000  1.000000 ScalE2=  1.000000  1.000000
 IRadAn=      5 IRanWt=     -1 IRanGd=            0 ICorTp=0 IEmpDi=  4
 NAtoms=    5 NActive=    5 NUniq=    5 SFac= 1.00D+00 NAtFMM=   60 NAOKFM=F Big=F
 Integral buffers will be    131072 words long.
 Raffenetti 1 integral format.
 Two-electron integral symmetry is turned off.
 Leave Link  301 at Tue Apr  9 21:53:33 2024, MaxMem=   104857600 cpu:               0.0 elap:               0.0
 (Enter /opt/g16/l402.exe)
 External calculation of energy, first and second derivatives.
 Running external command "python3 -u ../pes/h4n_anion_pes.py R"
         input file       "/home/jh-li/scratch/g16/Gau-1169495.EIn"
         output file      "/home/jh-li/scratch/g16/Gau-1169495.EOu"
         message file     "/home/jh-li/scratch/g16/Gau-1169495.EMs"
         fchk file        "/home/jh-li/scratch/g16/Gau-1169495.EFC"
         mat. el file     "/home/jh-li/scratch/g16/Gau-1169495.EUF"
 initialization done
 Recovered energy= -57.0001447005     dipole=      0.000000000000      0.000000000000      0.000000000000
 NRF= 0 NRA=   0 NVA=   0 HaveQM=F NVQ=       0
 Convergence limit is  0.750E-04 MaxStp= 10000 StMxLn= 3.00D-04 StpMin= 1.00D-06.
 Convergence criteria             0.00011250 0.00007500 0.00045000 0.00030000
  Step  NS  ND Rises OKQ   Scale  Max. Force  RMS Force Max. Disp.  RMS Disp.     Energy   Flag
     1   0   0   F    T  1.00D+00 0.00000000 0.00000000 0.00000000 0.00000000  -57.0001447 ====
 Running external command "python3 -u ../pes/h4n_anion_pes.py R"
         input file       "/home/jh-li/scratch/g16/Gau-1169495.EIn"
         output file      "/home/jh-li/scratch/g16/Gau-1169495.EOu"
         message file     "/home/jh-li/scratch/g16/Gau-1169495.EMs"
         fchk file        "/home/jh-li/scratch/g16/Gau-1169495.EFC"
         mat. el file     "/home/jh-li/scratch/g16/Gau-1169495.EUF"
 initialization done
 Recovered energy= -57.0001447005     dipole=      0.000000000000      0.000000000000      0.000000000000
 Energy=    -57.0001447     NIter=   0.
 Dipole moment=       0.000000       0.000000       0.000000
 Leave Link  402 at Tue Apr  9 21:53:34 2024, MaxMem=   104857600 cpu:               0.0 elap:               0.5
 (Enter /opt/g16/l716.exe)
 Dipole        = 0.00000000D+00 0.00000000D+00 0.00000000D+00
 -------------------------------------------------------------------
 Center     Atomic                   Forces (Hartrees/Bohr)
 Number     Number              X              Y              Z
 -------------------------------------------------------------------
      1        1           0.000014012   -0.000001449    0.000057159
      2        1           0.000014026    0.000001445    0.000057139
      3        1           0.000046318   -0.000000117   -0.000668367
      4        1          -0.000006246    0.000000047   -0.000319417
      5        7          -0.000067822    0.000000073    0.000886571
 -------------------------------------------------------------------
 Cartesian Forces:  Max     0.000886571 RMS     0.000299829
 Force constants in Cartesian coordinates: 
                1             2             3             4             5 
      1  0.141366D+00
      2  0.159583D+00  0.275186D+00
      3  0.580724D-01  0.640954D-01  0.314795D-01
      4  0.578514D-02 -0.234509D-01  0.351202D-02  0.141382D+00
      5  0.234528D-01 -0.283244D-01  0.102536D-01 -0.159587D+00  0.275164D+00
      6  0.351133D-02 -0.102519D-01  0.140023D-02  0.580838D-01 -0.641049D-01
      7 -0.187169D-02 -0.643609D-03 -0.734149D-02 -0.187172D-02  0.643173D-03
      8  0.123653D-03 -0.697170D-03 -0.101604D-01 -0.123568D-03 -0.696740D-03
      9  0.273686D-02  0.225325D-02  0.277658D-02  0.273698D-02 -0.225294D-02
     10  0.907671D-03  0.960087D-03  0.279006D-02  0.907732D-03 -0.959935D-03
     11  0.290716D-03  0.713498D-03  0.391562D-02 -0.290796D-03  0.713348D-03
     12 -0.157754D-02 -0.211516D-02 -0.232760D-02 -0.157763D-02  0.211492D-02
     13 -0.146185D+00 -0.136453D+00 -0.570346D-01 -0.146201D+00  0.136455D+00
     14 -0.183452D+00 -0.246876D+00 -0.681056D-01  0.183453D+00 -0.246854D+00
     15 -0.627388D-01 -0.539839D-01 -0.333290D-01 -0.627509D-01  0.539917D-01
                6             7             8             9            10 
      6  0.314861D-01
      7 -0.734203D-02  0.446425D-01
      8  0.101603D-01  0.000000D+00  0.530191D-01
      9  0.277614D-02  0.365865D-02 -0.118625D-05  0.814976D-03
     10  0.279030D-02 -0.253626D-01  0.000000D+00  0.722664D-03  0.151912D-01
     11 -0.391566D-02  0.000000D+00 -0.268253D-01  0.000000D+00  0.000000D+00
     12 -0.232748D-02  0.378747D-02  0.000000D+00 -0.541256D-01 -0.787078D-02
     13 -0.570450D-01 -0.155342D-01  0.000000D+00 -0.985570D-02  0.835454D-02
     14  0.681137D-01  0.000000D+00 -0.247957D-01  0.165395D-05  0.000000D+00
     15 -0.333353D-01  0.723983D-02  0.214815D-05  0.477718D-01  0.156856D-02
               11            12            13            14            15 
     11  0.143152D-01
     12  0.281502D-05  0.121597D+00
     13  0.000000D+00  0.723877D-02  0.299561D+00
     14  0.110810D-01 -0.177719D-05 -0.226016D-05  0.507438D+00
     15 -0.200371D-05 -0.628310D-01  0.116685D+00 -0.797740D-05  0.817256D-01
 Leave Link  716 at Tue Apr  9 21:53:34 2024, MaxMem=   104857600 cpu:               0.0 elap:               0.0
 (Enter /opt/g16/l123.exe)
 IRC-IRC-IRC-IRC-IRC-IRC-IRC-IRC-IRC-IRC-IRC-IRC-IRC-IRC-IRC-IRC-IRC-IRC
 Pt  1 Step number   1 out of a maximum of  10
 Using modified Bulirsch-Stoer corrector integration.
   Using distance weighted interpolants to fit PES.
 PreDWI: IReCr0= 2 IReCr1= 1 IReCr2= 1 IReCr3= 1
 Modified Bulirsch-Stoer Extrapolation Cycles:
    EPS =    0.000010000000000
    Cycle     1 NS=    48
      PEZero:  N= 2 I= 1 D=  8.15D-05 Err=  2.19D-04
    Cycle     2 NS=    64 Truncation Error =  0.000219393
      PEZero:  N= 3 I= 2 D=  8.15D-05 Err=  1.46D-04
      PEZero:  N= 3 I= 1 D=  1.63D-04 Err=  3.06D-08
    Cycle     3 NS=    96 Truncation Error =  0.000000031
 BS completed in    3 cycles and     208 integration steps.
 Maximum DWI energy   std dev =  0.000000169 at pt     1
 Maximum DWI gradient std dev =  0.029894375 at pt    22
 SUMMARY OF CORRECTOR INTEGRATION:
   Predictor End Point Energy =   -57.000145
   Old End Point Energy       =   -57.000145
   Corrected End Point Energy =   -57.000145
   Predictor End-Start Dist.  =     0.031294
   Old End-Start Dist.        =     0.031294
   New End-Start Dist.        =     0.031285
   New End-Old End Dist.      =     0.000625
 CORRECTOR INTEGRATION CONVERGENCE:
   Recorrection delta-x convergence threshold:    0.010000
   Delta-x Convergence Met
 Point Number:   1          Path Number:   1
                    CURRENT STRUCTURE
                Cartesian Coordinates (Ang):                
 ---------------------------------------------------------------------
 Center     Atomic                     Coordinates (Angstroms)
 Number     Number                        X           Y           Z
 ---------------------------------------------------------------------
      1          1                    0.512953    0.803256    0.437997
      2          1                    0.512994   -0.803208    0.438038
      3          1                    0.024613   -0.000034   -1.329085
      4          1                    0.091565   -0.000058   -2.234719
      5          7                   -0.082200    0.000003    0.193454
 ---------------------------------------------------------------------
   CHANGE IN THE REACTION COORDINATE =    0.03129
   NET REACTION COORDINATE UP TO THIS POINT =    0.03129
  # OF POINTS ALONG THE PATH =   1
  # OF STEPS =   1

 Calculating another point on the path.
 Point Number  2 in FORWARD path direction.
 Using LQA Reaction Path Following.
   LQA: T_Est iteration completed in    3 iterations.
 IRC-IRC-IRC-IRC-IRC-IRC-IRC-IRC-IRC-IRC-IRC-IRC-IRC-IRC-IRC-IRC-IRC-IRC
 Leave Link  123 at Tue Apr  9 21:53:34 2024, MaxMem=   104857600 cpu:               0.0 elap:               0.0
 (Enter /opt/g16/l202.exe)
                          Input orientation:                          
 ---------------------------------------------------------------------
 Center     Atomic      Atomic             Coordinates (Angstroms)
 Number     Number       Type             X           Y           Z
 ---------------------------------------------------------------------
      1          1           0        0.513168    0.803223    0.439147
      2          1           0        0.513208   -0.803174    0.439188
      3          1           0        0.025702   -0.000035   -1.343915
      4          1           0        0.091308   -0.000058   -2.239740
      5          7           0       -0.082291    0.000003    0.194731
 ---------------------------------------------------------------------
                    Distance matrix (angstroms):
                    1          2          3          4          5
     1  H    0.000000
     2  H    1.606397   0.000000
     3  H    2.015479   2.015478   0.000000
     4  H    2.828366   2.828365   0.898224   0.000000
     5  N    1.029306   1.029306   1.542432   2.440653   0.000000
 Symmetry turned off by external request.
 Stoichiometry    H4N(1-)
 Framework group  C1[X(H4N)]
 Deg. of freedom     9
 Full point group                 C1      NOp   1
 Rotational constants (GHZ):         261.1677269          59.9470615          55.5602555
 Leave Link  202 at Tue Apr  9 21:53:34 2024, MaxMem=   104857600 cpu:               0.0 elap:               0.0
 (Enter /opt/g16/l301.exe)
 Standard basis: STO-3G (5D, 7F)
 Ernie: Thresh=  0.10000D-02 Tol=  0.10000D-05 Strict=F.
     9 basis functions,    27 primitive gaussians,     9 cartesian basis functions
     6 alpha electrons        6 beta electrons
       nuclear repulsion energy        12.9346928339 Hartrees.
 IExCor=    0 DFT=F Ex=HF Corr=None ExCW=0 ScaHFX=  1.000000
 ScaDFX=  1.000000  1.000000  1.000000  1.000000 ScalE2=  1.000000  1.000000
 IRadAn=      5 IRanWt=     -1 IRanGd=            0 ICorTp=0 IEmpDi=  4
 NAtoms=    5 NActive=    5 NUniq=    5 SFac= 1.00D+00 NAtFMM=   60 NAOKFM=F Big=F
 Integral buffers will be    131072 words long.
 Raffenetti 1 integral format.
 Two-electron integral symmetry is turned off.
 Leave Link  301 at Tue Apr  9 21:53:34 2024, MaxMem=   104857600 cpu:               0.0 elap:               0.0
 (Enter /opt/g16/l402.exe)
 External calculation of energy, first and second derivatives.
 Running external command "python3 -u ../pes/h4n_anion_pes.py R"
         input file       "/home/jh-li/scratch/g16/Gau-1169495.EIn"
         output file      "/home/jh-li/scratch/g16/Gau-1169495.EOu"
         message file     "/home/jh-li/scratch/g16/Gau-1169495.EMs"
         fchk file        "/home/jh-li/scratch/g16/Gau-1169495.EFC"
         mat. el file     "/home/jh-li/scratch/g16/Gau-1169495.EUF"
 initialization done
 Recovered energy= -57.0001798293     dipole=      0.000000000000      0.000000000000      0.000000000000
 NRF= 0 NRA=   0 NVA=   0 HaveQM=F NVQ=       0
 Convergence limit is  0.750E-04 MaxStp= 10000 StMxLn= 3.00D-04 StpMin= 1.00D-06.
 Convergence criteria             0.00011250 0.00007500 0.00045000 0.00030000
  Step  NS  ND Rises OKQ   Scale  Max. Force  RMS Force Max. Disp.  RMS Disp.     Energy   Flag
     1   0   0   F    T  1.00D+00 0.00000000 0.00000000 0.00000000 0.00000000  -57.0001798 ====
 Running external command "python3 -u ../pes/h4n_anion_pes.py R"
         input file       "/home/jh-li/scratch/g16/Gau-1169495.EIn"
         output file      "/home/jh-li/scratch/g16/Gau-1169495.EOu"
         message file     "/home/jh-li/scratch/g16/Gau-1169495.EMs"
         fchk file        "/home/jh-li/scratch/g16/Gau-1169495.EFC"
         mat. el file     "/home/jh-li/scratch/g16/Gau-1169495.EUF"
 initialization done
 Recovered energy= -57.0001798293     dipole=      0.000000000000      0.000000000000      0.000000000000
 Energy=    -57.0001798     NIter=   0.
 Dipole moment=       0.000000       0.000000       0.000000
 Leave Link  402 at Tue Apr  9 21:53:34 2024, MaxMem=   104857600 cpu:               0.0 elap:               0.5
 (Enter /opt/g16/l716.exe)
 Dipole        = 0.00000000D+00 0.00000000D+00 0.00000000D+00
 -------------------------------------------------------------------
 Center     Atomic                   Forces (Hartrees/Bohr)
 Number     Number              X              Y              Z
 -------------------------------------------------------------------
      1        1           0.000017339   -0.000003614    0.000104706
      2        1           0.000017342    0.000003624    0.000104715
      3        1           0.000088613   -0.000000033   -0.001227509
      4        1          -0.000015441   -0.000000009   -0.000535393
      5        7          -0.000107589    0.000000031    0.001566761
 -------------------------------------------------------------------
 Cartesian Forces:  Max     0.001566761 RMS     0.000534814
 Force constants in Cartesian coordinates: 
                1             2             3             4             5 
      1  0.141303D+00
      2  0.159439D+00  0.274865D+00
      3  0.580246D-01  0.640453D-01  0.308443D-01
      4  0.575978D-02 -0.234457D-01  0.344811D-02  0.141319D+00
      5  0.234475D-01 -0.283455D-01  0.102313D-01 -0.159443D+00  0.274843D+00
      6  0.344742D-02 -0.102296D-01  0.138788D-02  0.580360D-01 -0.640549D-01
      7 -0.181554D-02 -0.622736D-03 -0.701420D-02 -0.181556D-02  0.622321D-03
      8  0.117861D-03 -0.677602D-03 -0.968753D-02 -0.117770D-03 -0.677193D-03
      9  0.265570D-02  0.219317D-02  0.287182D-02  0.265583D-02 -0.219286D-02
     10  0.897114D-03  0.928605D-03  0.275919D-02  0.897171D-03 -0.928454D-03
     11  0.265415D-03  0.694136D-03  0.386894D-02 -0.265493D-03  0.693988D-03
     12 -0.155476D-02 -0.209553D-02 -0.234695D-02 -0.155485D-02  0.209530D-02
     13 -0.146142D+00 -0.136304D+00 -0.572192D-01 -0.146158D+00  0.136306D+00
     14 -0.183271D+00 -0.246534D+00 -0.684594D-01  0.183273D+00 -0.246512D+00
     15 -0.625686D-01 -0.539156D-01 -0.327573D-01 -0.625807D-01  0.539235D-01
                6             7             8             9            10 
      6  0.308509D-01
      7 -0.701472D-02  0.435313D-01
      8  0.968738D-02  0.000000D+00  0.514882D-01
      9  0.287136D-02  0.266273D-02 -0.101369D-05  0.113306D-01
     10  0.275942D-02 -0.251558D-01  0.000000D+00  0.141531D-02  0.151545D-01
     11 -0.386896D-02  0.000000D+00 -0.265644D-01  0.000000D+00  0.000000D+00
     12 -0.234682D-02  0.440960D-02  0.000000D+00 -0.630119D-01 -0.834873D-02
     13 -0.572297D-01 -0.147421D-01  0.000000D+00 -0.939013D-02  0.820561D-02
     14  0.684675D-01  0.000000D+00 -0.235649D-01  0.165291D-05  0.000000D+00
     15 -0.327636D-01  0.695901D-02  0.205076D-05  0.459503D-01  0.141558D-02
               11            12            13            14            15 
     11  0.142688D-01
     12  0.288960D-05  0.128991D+00
     13  0.000000D+00  0.704902D-02  0.298832D+00
     14  0.109053D-01 -0.176359D-05 -0.217316D-05  0.505700D+00
     15 -0.191027D-05 -0.613000D-01  0.116778D+00 -0.800002D-05  0.808737D-01
 Leave Link  716 at Tue Apr  9 21:53:34 2024, MaxMem=   104857600 cpu:               0.0 elap:               0.0
 (Enter /opt/g16/l123.exe)
 IRC-IRC-IRC-IRC-IRC-IRC-IRC-IRC-IRC-IRC-IRC-IRC-IRC-IRC-IRC-IRC-IRC-IRC
 Pt  2 Step number   1 out of a maximum of  10
 Using modified Bulirsch-Stoer corrector integration.
   Using distance weighted interpolants to fit PES.
 PreDWI: IReCr0= 2 IReCr1= 1 IReCr2= 1 IReCr3= 1
 Modified Bulirsch-Stoer Extrapolation Cycles:
    EPS =    0.000010000000000
    Cycle     1 NS=    48
      PEZero:  N= 2 I= 1 D=  1.63D-04 Err=  3.51D-06
    Cycle     2 NS=    64 Truncation Error =  0.000003507
 BS completed in    2 cycles and     112 integration steps.
 Maximum DWI energy   std dev =  0.000000208 at pt    33
 Maximum DWI gradient std dev =  0.021067463 at pt    12
 SUMMARY OF CORRECTOR INTEGRATION:
   Predictor End Point Energy =   -57.000180
   Old End Point Energy       =   -57.000180
   Corrected End Point Energy =   -57.000180
   Predictor End-Start Dist.  =     0.031284
   Old End-Start Dist.        =     0.031284
   New End-Start Dist.        =     0.031279
   New End-Old End Dist.      =     0.000361
 CORRECTOR INTEGRATION CONVERGENCE:
   Recorrection delta-x convergence threshold:    0.010000
   Delta-x Convergence Met
 Point Number:   2          Path Number:   1
                    CURRENT STRUCTURE
                Cartesian Coordinates (Ang):                
 ---------------------------------------------------------------------
 Center     Atomic                     Coordinates (Angstroms)
 Number     Number                        X           Y           Z
 ---------------------------------------------------------------------
      1          1                    0.513166    0.803221    0.439158
      2          1                    0.513206   -0.803172    0.439199
      3          1                    0.025692   -0.000035   -1.343845
      4          1                    0.091317   -0.000058   -2.239913
      5          7                   -0.082291    0.000003    0.194737
 ---------------------------------------------------------------------
   CHANGE IN THE REACTION COORDINATE =    0.03128
   NET REACTION COORDINATE UP TO THIS POINT =    0.06256
  # OF POINTS ALONG THE PATH =   2
  # OF STEPS =   1

 Calculating another point on the path.
 Point Number  3 in FORWARD path direction.
 Using LQA Reaction Path Following.
   LQA: T_Est iteration completed in    3 iterations.
 IRC-IRC-IRC-IRC-IRC-IRC-IRC-IRC-IRC-IRC-IRC-IRC-IRC-IRC-IRC-IRC-IRC-IRC
 Leave Link  123 at Tue Apr  9 21:53:35 2024, MaxMem=   104857600 cpu:               0.0 elap:               0.0
 (Enter /opt/g16/l202.exe)
                          Input orientation:                          
 ---------------------------------------------------------------------
 Center     Atomic      Atomic             Coordinates (Angstroms)
 Number     Number       Type             X           Y           Z
 ---------------------------------------------------------------------
      1          1           0        0.513352    0.803180    0.440392
      2          1           0        0.513392   -0.803132    0.440433
      3          1           0        0.026756   -0.000035   -1.358411
      4          1           0        0.091088   -0.000058   -2.245595
      5          7           0       -0.082377    0.000003    0.196026
 ---------------------------------------------------------------------
                    Distance matrix (angstroms):
                    1          2          3          4          5
     1  H    0.000000
     2  H    1.606312   0.000000
     3  H    2.029193   2.029192   0.000000
     4  H    2.835140   2.835139   0.889513   0.000000
     5  N    1.029418   1.029418   1.558264   2.447775   0.000000
 Symmetry turned off by external request.
 Stoichiometry    H4N(1-)
 Framework group  C1[X(H4N)]
 Deg. of freedom     9
 Full point group                 C1      NOp   1
 Rotational constants (GHZ):         261.1069766          59.4126081          55.1052308
 Leave Link  202 at Tue Apr  9 21:53:35 2024, MaxMem=   104857600 cpu:               0.0 elap:               0.0
 (Enter /opt/g16/l301.exe)
 Standard basis: STO-3G (5D, 7F)
 Ernie: Thresh=  0.10000D-02 Tol=  0.10000D-05 Strict=F.
     9 basis functions,    27 primitive gaussians,     9 cartesian basis functions
     6 alpha electrons        6 beta electrons
       nuclear repulsion energy        12.9064414513 Hartrees.
 IExCor=    0 DFT=F Ex=HF Corr=None ExCW=0 ScaHFX=  1.000000
 ScaDFX=  1.000000  1.000000  1.000000  1.000000 ScalE2=  1.000000  1.000000
 IRadAn=      5 IRanWt=     -1 IRanGd=            0 ICorTp=0 IEmpDi=  4
 NAtoms=    5 NActive=    5 NUniq=    5 SFac= 1.00D+00 NAtFMM=   60 NAOKFM=F Big=F
 Integral buffers will be    131072 words long.
 Raffenetti 1 integral format.
 Two-electron integral symmetry is turned off.
 Leave Link  301 at Tue Apr  9 21:53:35 2024, MaxMem=   104857600 cpu:               0.1 elap:               0.1
 (Enter /opt/g16/l402.exe)
 External calculation of energy, first and second derivatives.
 Running external command "python3 -u ../pes/h4n_anion_pes.py R"
         input file       "/home/jh-li/scratch/g16/Gau-1169495.EIn"
         output file      "/home/jh-li/scratch/g16/Gau-1169495.EOu"
         message file     "/home/jh-li/scratch/g16/Gau-1169495.EMs"
         fchk file        "/home/jh-li/scratch/g16/Gau-1169495.EFC"
         mat. el file     "/home/jh-li/scratch/g16/Gau-1169495.EUF"
 initialization done
 Recovered energy= -57.0002327450     dipole=      0.000000000000      0.000000000000      0.000000000000
 NRF= 0 NRA=   0 NVA=   0 HaveQM=F NVQ=       0
 Convergence limit is  0.750E-04 MaxStp= 10000 StMxLn= 3.00D-04 StpMin= 1.00D-06.
 Convergence criteria             0.00011250 0.00007500 0.00045000 0.00030000
  Step  NS  ND Rises OKQ   Scale  Max. Force  RMS Force Max. Disp.  RMS Disp.     Energy   Flag
     1   0   0   F    T  1.00D+00 0.00000000 0.00000000 0.00000000 0.00000000  -57.0002327 ====
 Running external command "python3 -u ../pes/h4n_anion_pes.py R"
         input file       "/home/jh-li/scratch/g16/Gau-1169495.EIn"
         output file      "/home/jh-li/scratch/g16/Gau-1169495.EOu"
         message file     "/home/jh-li/scratch/g16/Gau-1169495.EMs"
         fchk file        "/home/jh-li/scratch/g16/Gau-1169495.EFC"
         mat. el file     "/home/jh-li/scratch/g16/Gau-1169495.EUF"
 initialization done
 Recovered energy= -57.0002327450     dipole=      0.000000000000      0.000000000000      0.000000000000
 Energy=    -57.0002327     NIter=   0.
 Dipole moment=       0.000000       0.000000       0.000000
 Leave Link  402 at Tue Apr  9 21:53:35 2024, MaxMem=   104857600 cpu:               0.0 elap:               0.5
 (Enter /opt/g16/l716.exe)
 Dipole        = 0.00000000D+00 0.00000000D+00 0.00000000D+00
 -------------------------------------------------------------------
 Center     Atomic                   Forces (Hartrees/Bohr)
 Number     Number              X              Y              Z
 -------------------------------------------------------------------
      1        1           0.000020225   -0.000005612    0.000151273
      2        1           0.000020228    0.000005625    0.000151281
      3        1           0.000119064   -0.000000042   -0.001653404
      4        1          -0.000021766   -0.000000017   -0.000763847
      5        7          -0.000137507    0.000000046    0.002128112
 -------------------------------------------------------------------
 Cartesian Forces:  Max     0.002128112 RMS     0.000726924
 Force constants in Cartesian coordinates: 
                1             2             3             4             5 
      1  0.141235D+00
      2  0.159301D+00  0.274570D+00
      3  0.579935D-01  0.640192D-01  0.302699D-01
      4  0.573487D-02 -0.234386D-01  0.338894D-02  0.141251D+00
      5  0.234405D-01 -0.283693D-01  0.102106D-01 -0.159305D+00  0.274547D+00
      6  0.338824D-02 -0.102089D-01  0.137613D-02  0.580049D-01 -0.640289D-01
      7 -0.176219D-02 -0.604374D-03 -0.670738D-02 -0.176221D-02  0.603975D-03
      8  0.112460D-03 -0.659500D-03 -0.924591D-02 -0.112372D-03 -0.659110D-03
      9  0.257822D-02  0.213141D-02  0.295320D-02  0.257834D-02 -0.213110D-02
     10  0.885702D-03  0.897626D-03  0.272591D-02  0.885757D-03 -0.897476D-03
     11  0.240778D-03  0.674726D-03  0.381894D-02 -0.240853D-03  0.674581D-03
     12 -0.153125D-02 -0.207237D-02 -0.236598D-02 -0.153134D-02  0.207213D-02
     13 -0.146091D+00 -0.136161D+00 -0.574025D-01 -0.146107D+00  0.136163D+00
     14 -0.183096D+00 -0.246214D+00 -0.688041D-01  0.183098D+00 -0.246191D+00
     15 -0.624243D-01 -0.538717D-01 -0.322335D-01 -0.624365D-01  0.538796D-01
                6             7             8             9            10 
      6  0.302765D-01
      7 -0.670788D-02  0.424360D-01
      8  0.924578D-02  0.000000D+00  0.499987D-01
      9  0.295276D-02  0.170357D-02  0.000000D+00  0.217725D-01
     10  0.272614D-02 -0.248979D-01  0.000000D+00  0.209032D-02  0.150743D-01
     11 -0.381897D-02  0.000000D+00 -0.262517D-01 -0.117862D-05  0.000000D+00
     12 -0.236585D-02  0.501183D-02 -0.111270D-05 -0.717950D-01 -0.880639D-02
     13 -0.574129D-01 -0.140116D-01  0.000000D+00 -0.895102D-02  0.805065D-02
     14  0.688123D-01  0.000000D+00 -0.224245D-01  0.158257D-05  0.000000D+00
     15 -0.322398D-01  0.670228D-02  0.196198D-05  0.441272D-01  0.126475D-02
               11            12            13            14            15 
     11  0.141801D-01
     12  0.306942D-05  0.136245D+00
     13  0.000000D+00  0.685743D-02  0.298155D+00
     14  0.107201D-01 -0.171981D-05 -0.214443D-05  0.504104D+00
     15 -0.186324D-05 -0.597323D-01  0.116897D+00 -0.799369D-05  0.800825D-01
 Leave Link  716 at Tue Apr  9 21:53:35 2024, MaxMem=   104857600 cpu:               0.0 elap:               0.0
 (Enter /opt/g16/l123.exe)
 IRC-IRC-IRC-IRC-IRC-IRC-IRC-IRC-IRC-IRC-IRC-IRC-IRC-IRC-IRC-IRC-IRC-IRC
 Pt  3 Step number   1 out of a maximum of  10
 Using modified Bulirsch-Stoer corrector integration.
   Using distance weighted interpolants to fit PES.
 PreDWI: IReCr0= 2 IReCr1= 1 IReCr2= 1 IReCr3= 1
 Modified Bulirsch-Stoer Extrapolation Cycles:
    EPS =    0.000010000000000
    Cycle     1 NS=    48
      PEZero:  N= 2 I= 1 D=  1.63D-04 Err=  3.69D-06
    Cycle     2 NS=    64 Truncation Error =  0.000003689
 BS completed in    2 cycles and     112 integration steps.
 Maximum DWI energy   std dev =  0.000000221 at pt    33
 Maximum DWI gradient std dev =  0.012073873 at pt    17
 SUMMARY OF CORRECTOR INTEGRATION:
   Predictor End Point Energy =   -57.000233
   Old End Point Energy       =   -57.000233
   Corrected End Point Energy =   -57.000233
   Predictor End-Start Dist.  =     0.031286
   Old End-Start Dist.        =     0.031286
   New End-Start Dist.        =     0.031283
   New End-Old End Dist.      =     0.000273
 CORRECTOR INTEGRATION CONVERGENCE:
   Recorrection delta-x convergence threshold:    0.010000
   Delta-x Convergence Met
 Point Number:   3          Path Number:   1
                    CURRENT STRUCTURE
                Cartesian Coordinates (Ang):                
 ---------------------------------------------------------------------
 Center     Atomic                     Coordinates (Angstroms)
 Number     Number                        X           Y           Z
 ---------------------------------------------------------------------
      1          1                    0.513351    0.803179    0.440400
      2          1                    0.513391   -0.803130    0.440441
      3          1                    0.026748   -0.000035   -1.358353
      4          1                    0.091094   -0.000058   -2.245724
      5          7                   -0.082377    0.000003    0.196031
 ---------------------------------------------------------------------
   CHANGE IN THE REACTION COORDINATE =    0.03128
   NET REACTION COORDINATE UP TO THIS POINT =    0.09385
  # OF POINTS ALONG THE PATH =   3
  # OF STEPS =   1

 Calculating another point on the path.
 Point Number  4 in FORWARD path direction.
 Using LQA Reaction Path Following.
   LQA: T_Est iteration completed in    3 iterations.
 IRC-IRC-IRC-IRC-IRC-IRC-IRC-IRC-IRC-IRC-IRC-IRC-IRC-IRC-IRC-IRC-IRC-IRC
 Leave Link  123 at Tue Apr  9 21:53:35 2024, MaxMem=   104857600 cpu:               0.0 elap:               0.0
 (Enter /opt/g16/l202.exe)
                          Input orientation:                          
 ---------------------------------------------------------------------
 Center     Atomic      Atomic             Coordinates (Angstroms)
 Number     Number       Type             X           Y           Z
 ---------------------------------------------------------------------
      1          1           0        0.513509    0.803131    0.441720
      2          1           0        0.513549   -0.803082    0.441761
      3          1           0        0.027783   -0.000036   -1.372661
      4          1           0        0.090873   -0.000058   -2.251979
      5          7           0       -0.082458    0.000003    0.197328
 ---------------------------------------------------------------------
                    Distance matrix (angstroms):
                    1          2          3          4          5
     1  H    0.000000
     2  H    1.606213   0.000000
     3  H    2.042788   2.042787   0.000000
     4  H    2.842490   2.842488   0.881579   0.000000
     5  N    1.029523   1.029523   1.573854   2.455432   0.000000
 Symmetry turned off by external request.
 Stoichiometry    H4N(1-)
 Framework group  C1[X(H4N)]
 Deg. of freedom     9
 Full point group                 C1      NOp   1
 Rotational constants (GHZ):         261.0584572          58.8712622          54.6432502
 Leave Link  202 at Tue Apr  9 21:53:35 2024, MaxMem=   104857600 cpu:               0.0 elap:               0.0
 (Enter /opt/g16/l301.exe)
 Standard basis: STO-3G (5D, 7F)
 Ernie: Thresh=  0.10000D-02 Tol=  0.10000D-05 Strict=F.
     9 basis functions,    27 primitive gaussians,     9 cartesian basis functions
     6 alpha electrons        6 beta electrons
       nuclear repulsion energy        12.8783768172 Hartrees.
 IExCor=    0 DFT=F Ex=HF Corr=None ExCW=0 ScaHFX=  1.000000
 ScaDFX=  1.000000  1.000000  1.000000  1.000000 ScalE2=  1.000000  1.000000
 IRadAn=      5 IRanWt=     -1 IRanGd=            0 ICorTp=0 IEmpDi=  4
 NAtoms=    5 NActive=    5 NUniq=    5 SFac= 1.00D+00 NAtFMM=   60 NAOKFM=F Big=F
 Integral buffers will be    131072 words long.
 Raffenetti 1 integral format.
 Two-electron integral symmetry is turned off.
 Leave Link  301 at Tue Apr  9 21:53:35 2024, MaxMem=   104857600 cpu:               0.1 elap:               0.0
 (Enter /opt/g16/l402.exe)
 External calculation of energy, first and second derivatives.
 Running external command "python3 -u ../pes/h4n_anion_pes.py R"
         input file       "/home/jh-li/scratch/g16/Gau-1169495.EIn"
         output file      "/home/jh-li/scratch/g16/Gau-1169495.EOu"
         message file     "/home/jh-li/scratch/g16/Gau-1169495.EMs"
         fchk file        "/home/jh-li/scratch/g16/Gau-1169495.EFC"
         mat. el file     "/home/jh-li/scratch/g16/Gau-1169495.EUF"
 initialization done
 Recovered energy= -57.0002999143     dipole=      0.000000000000      0.000000000000      0.000000000000
 NRF= 0 NRA=   0 NVA=   0 HaveQM=F NVQ=       0
 Convergence limit is  0.750E-04 MaxStp= 10000 StMxLn= 3.00D-04 StpMin= 1.00D-06.
 Convergence criteria             0.00011250 0.00007500 0.00045000 0.00030000
  Step  NS  ND Rises OKQ   Scale  Max. Force  RMS Force Max. Disp.  RMS Disp.     Energy   Flag
     1   0   0   F    T  1.00D+00 0.00000000 0.00000000 0.00000000 0.00000000  -57.0002999 ====
 Running external command "python3 -u ../pes/h4n_anion_pes.py R"
         input file       "/home/jh-li/scratch/g16/Gau-1169495.EIn"
         output file      "/home/jh-li/scratch/g16/Gau-1169495.EOu"
         message file     "/home/jh-li/scratch/g16/Gau-1169495.EMs"
         fchk file        "/home/jh-li/scratch/g16/Gau-1169495.EFC"
         mat. el file     "/home/jh-li/scratch/g16/Gau-1169495.EUF"
 initialization done
 Recovered energy= -57.0002999143     dipole=      0.000000000000      0.000000000000      0.000000000000
 Energy=    -57.0002999     NIter=   0.
 Dipole moment=       0.000000       0.000000       0.000000
 Leave Link  402 at Tue Apr  9 21:53:36 2024, MaxMem=   104857600 cpu:               0.0 elap:               0.5
 (Enter /opt/g16/l716.exe)
 Dipole        = 0.00000000D+00 0.00000000D+00 0.00000000D+00
 -------------------------------------------------------------------
 Center     Atomic                   Forces (Hartrees/Bohr)
 Number     Number              X              Y              Z
 -------------------------------------------------------------------
      1        1           0.000020274   -0.000007672    0.000194958
      2        1           0.000020277    0.000007687    0.000194965
      3        1           0.000141003   -0.000000050   -0.001975377
      4        1          -0.000027390   -0.000000023   -0.000979434
      5        7          -0.000153942    0.000000058    0.002578384
 -------------------------------------------------------------------
 Cartesian Forces:  Max     0.002578384 RMS     0.000880559
 Force constants in Cartesian coordinates: 
                1             2             3             4             5 
      1  0.141160D+00
      2  0.159164D+00  0.274290D+00
      3  0.579813D-01  0.640187D-01  0.297586D-01
      4  0.571029D-02 -0.234294D-01  0.333401D-02  0.141176D+00
      5  0.234313D-01 -0.283968D-01  0.101918D-01 -0.159168D+00  0.274267D+00
      6  0.333331D-02 -0.101901D-01  0.136591D-02  0.579927D-01 -0.640284D-01
      7 -0.171169D-02 -0.588012D-03 -0.642043D-02 -0.171171D-02  0.587629D-03
      8  0.107725D-03 -0.642618D-03 -0.883451D-02 -0.107639D-03 -0.642245D-03
      9  0.250453D-02  0.206841D-02  0.302384D-02  0.250464D-02 -0.206810D-02
     10  0.873589D-03  0.867083D-03  0.269059D-02  0.873642D-03 -0.866935D-03
     11  0.216833D-03  0.655332D-03  0.376621D-02 -0.216905D-03  0.655192D-03
     12 -0.150719D-02 -0.204593D-02 -0.238580D-02 -0.150728D-02  0.204570D-02
     13 -0.146030D+00 -0.136018D+00 -0.575869D-01 -0.146046D+00  0.136020D+00
     14 -0.182921D+00 -0.245904D+00 -0.691434D-01  0.182923D+00 -0.245882D+00
     15 -0.623076D-01 -0.538533D-01 -0.317627D-01 -0.623197D-01  0.538612D-01
                6             7             8             9            10 
      6  0.297652D-01
      7 -0.642090D-02  0.413729D-01
      8  0.883439D-02  0.000000D+00  0.485664D-01
      9  0.302342D-02  0.791160D-03  0.000000D+00  0.319810D-01
     10  0.269082D-02 -0.246062D-01  0.000000D+00  0.273562D-02  0.149662D-01
     11 -0.376624D-02  0.000000D+00 -0.259058D-01 -0.140020D-05  0.000000D+00
     12 -0.238567D-02  0.558339D-02 -0.133486D-05 -0.803525D-01 -0.923166D-02
     13 -0.575974D-01 -0.133412D-01  0.000000D+00 -0.853654D-02  0.789138D-02
     14  0.691516D-01  0.000000D+00 -0.213719D-01  0.151449D-05  0.000000D+00
     15 -0.317690D-01  0.646918D-02  0.187804D-05  0.423336D-01  0.111533D-02
               11            12            13            14            15 
     11  0.140656D-01
     12  0.324674D-05  0.143253D+00
     13  0.000000D+00  0.666302D-02  0.297521D+00
     14  0.105275D-01 -0.167599D-05 -0.211865D-05  0.502625D+00
     15 -0.181758D-05 -0.581431D-01  0.117046D+00 -0.798287D-05  0.793461D-01
 Leave Link  716 at Tue Apr  9 21:53:36 2024, MaxMem=   104857600 cpu:               0.0 elap:               0.0
 (Enter /opt/g16/l123.exe)
 IRC-IRC-IRC-IRC-IRC-IRC-IRC-IRC-IRC-IRC-IRC-IRC-IRC-IRC-IRC-IRC-IRC-IRC
 Pt  4 Step number   1 out of a maximum of  10
 Using modified Bulirsch-Stoer corrector integration.
   Using distance weighted interpolants to fit PES.
 PreDWI: IReCr0= 2 IReCr1= 1 IReCr2= 1 IReCr3= 1
 Modified Bulirsch-Stoer Extrapolation Cycles:
    EPS =    0.000010000000000
    Cycle     1 NS=    48
      PEZero:  N= 2 I= 1 D=  1.63D-04 Err=  3.46D-06
    Cycle     2 NS=    64 Truncation Error =  0.000003461
 BS completed in    2 cycles and     112 integration steps.
 Maximum DWI energy   std dev =  0.000000229 at pt    24
 Maximum DWI gradient std dev =  0.008515295 at pt    17
 SUMMARY OF CORRECTOR INTEGRATION:
   Predictor End Point Energy =   -57.000300
   Old End Point Energy       =   -57.000300
   Corrected End Point Energy =   -57.000300
   Predictor End-Start Dist.  =     0.031287
   Old End-Start Dist.        =     0.031287
   New End-Start Dist.        =     0.031284
   New End-Old End Dist.      =     0.000216
 CORRECTOR INTEGRATION CONVERGENCE:
   Recorrection delta-x convergence threshold:    0.010000
   Delta-x Convergence Met
 Point Number:   4          Path Number:   1
                    CURRENT STRUCTURE
                Cartesian Coordinates (Ang):                
 ---------------------------------------------------------------------
 Center     Atomic                     Coordinates (Angstroms)
 Number     Number                        X           Y           Z
 ---------------------------------------------------------------------
      1          1                    0.513508    0.803129    0.441726
      2          1                    0.513548   -0.803081    0.441767
      3          1                    0.027777   -0.000036   -1.372611
      4          1                    0.090879   -0.000058   -2.252080
      5          7                   -0.082458    0.000003    0.197331
 ---------------------------------------------------------------------
   CHANGE IN THE REACTION COORDINATE =    0.03128
   NET REACTION COORDINATE UP TO THIS POINT =    0.12513
  # OF POINTS ALONG THE PATH =   4
  # OF STEPS =   1

 Calculating another point on the path.
 Point Number  5 in FORWARD path direction.
 Using LQA Reaction Path Following.
   LQA: T_Est iteration completed in    3 iterations.
 IRC-IRC-IRC-IRC-IRC-IRC-IRC-IRC-IRC-IRC-IRC-IRC-IRC-IRC-IRC-IRC-IRC-IRC
 Leave Link  123 at Tue Apr  9 21:53:36 2024, MaxMem=   104857600 cpu:               0.0 elap:               0.0
 (Enter /opt/g16/l202.exe)
                          Input orientation:                          
 ---------------------------------------------------------------------
 Center     Atomic      Atomic             Coordinates (Angstroms)
 Number     Number       Type             X           Y           Z
 ---------------------------------------------------------------------
      1          1           0        0.513635    0.803075    0.443136
      2          1           0        0.513676   -0.803026    0.443177
      3          1           0        0.028781   -0.000036   -1.386671
      4          1           0        0.090657   -0.000058   -2.258834
      5          7           0       -0.082532    0.000003    0.198632
 ---------------------------------------------------------------------
                    Distance matrix (angstroms):
                    1          2          3          4          5
     1  H    0.000000
     2  H    1.606101   0.000000
     3  H    2.056274   2.056273   0.000000
     4  H    2.850363   2.850362   0.874355   0.000000
     5  N    1.029622   1.029622   1.589206   2.463561   0.000000
 Symmetry turned off by external request.
 Stoichiometry    H4N(1-)
 Framework group  C1[X(H4N)]
 Deg. of freedom     9
 Full point group                 C1      NOp   1
 Rotational constants (GHZ):         261.0231184          58.3254677          54.1763418
 Leave Link  202 at Tue Apr  9 21:53:36 2024, MaxMem=   104857600 cpu:               0.0 elap:               0.0
 (Enter /opt/g16/l301.exe)
 Standard basis: STO-3G (5D, 7F)
 Ernie: Thresh=  0.10000D-02 Tol=  0.10000D-05 Strict=F.
     9 basis functions,    27 primitive gaussians,     9 cartesian basis functions
     6 alpha electrons        6 beta electrons
       nuclear repulsion energy        12.8505244932 Hartrees.
 IExCor=    0 DFT=F Ex=HF Corr=None ExCW=0 ScaHFX=  1.000000
 ScaDFX=  1.000000  1.000000  1.000000  1.000000 ScalE2=  1.000000  1.000000
 IRadAn=      5 IRanWt=     -1 IRanGd=            0 ICorTp=0 IEmpDi=  4
 NAtoms=    5 NActive=    5 NUniq=    5 SFac= 1.00D+00 NAtFMM=   60 NAOKFM=F Big=F
 Integral buffers will be    131072 words long.
 Raffenetti 1 integral format.
 Two-electron integral symmetry is turned off.
 Leave Link  301 at Tue Apr  9 21:53:36 2024, MaxMem=   104857600 cpu:               0.0 elap:               0.0
 (Enter /opt/g16/l402.exe)
 External calculation of energy, first and second derivatives.
 Running external command "python3 -u ../pes/h4n_anion_pes.py R"
         input file       "/home/jh-li/scratch/g16/Gau-1169495.EIn"
         output file      "/home/jh-li/scratch/g16/Gau-1169495.EOu"
         message file     "/home/jh-li/scratch/g16/Gau-1169495.EMs"
         fchk file        "/home/jh-li/scratch/g16/Gau-1169495.EFC"
         mat. el file     "/home/jh-li/scratch/g16/Gau-1169495.EUF"
 initialization done
 Recovered energy= -57.0003783845     dipole=      0.000000000000      0.000000000000      0.000000000000
 NRF= 0 NRA=   0 NVA=   0 HaveQM=F NVQ=       0
 Convergence limit is  0.750E-04 MaxStp= 10000 StMxLn= 3.00D-04 StpMin= 1.00D-06.
 Convergence criteria             0.00011250 0.00007500 0.00045000 0.00030000
  Step  NS  ND Rises OKQ   Scale  Max. Force  RMS Force Max. Disp.  RMS Disp.     Energy   Flag
     1   0   0   F    T  1.00D+00 0.00000000 0.00000000 0.00000000 0.00000000  -57.0003784 ====
 Running external command "python3 -u ../pes/h4n_anion_pes.py R"
         input file       "/home/jh-li/scratch/g16/Gau-1169495.EIn"
         output file      "/home/jh-li/scratch/g16/Gau-1169495.EOu"
         message file     "/home/jh-li/scratch/g16/Gau-1169495.EMs"
         fchk file        "/home/jh-li/scratch/g16/Gau-1169495.EFC"
         mat. el file     "/home/jh-li/scratch/g16/Gau-1169495.EUF"
 initialization done
 Recovered energy= -57.0003783845     dipole=      0.000000000000      0.000000000000      0.000000000000
 Energy=    -57.0003784     NIter=   0.
 Dipole moment=       0.000000       0.000000       0.000000
 Leave Link  402 at Tue Apr  9 21:53:36 2024, MaxMem=   104857600 cpu:               0.0 elap:               0.5
 (Enter /opt/g16/l716.exe)
 Dipole        = 0.00000000D+00 0.00000000D+00 0.00000000D+00
 -------------------------------------------------------------------
 Center     Atomic                   Forces (Hartrees/Bohr)
 Number     Number              X              Y              Z
 -------------------------------------------------------------------
      1        1           0.000017937   -0.000009627    0.000235820
      2        1           0.000017941    0.000009644    0.000235825
      3        1           0.000156228   -0.000000056   -0.002214212
      4        1          -0.000032980   -0.000000029   -0.001174743
      5        7          -0.000158922    0.000000067    0.002930839
 -------------------------------------------------------------------
 Cartesian Forces:  Max     0.002930839 RMS     0.001001178
 Force constants in Cartesian coordinates: 
                1             2             3             4             5 
      1  0.141076D+00
      2  0.159026D+00  0.274026D+00
      3  0.579888D-01  0.640447D-01  0.293075D-01
      4  0.568592D-02 -0.234182D-01  0.328308D-02  0.141092D+00
      5  0.234201D-01 -0.284277D-01  0.101755D-01 -0.159030D+00  0.274003D+00
      6  0.328238D-02 -0.101738D-01  0.135727D-02  0.580002D-01 -0.640544D-01
      7 -0.166383D-02 -0.573330D-03 -0.615191D-02 -0.166385D-02  0.572962D-03
      8  0.103696D-03 -0.626803D-03 -0.845103D-02 -0.103613D-03 -0.626447D-03
      9  0.243433D-02  0.200461D-02  0.308526D-02  0.243444D-02 -0.200430D-02
     10  0.860918D-03  0.837058D-03  0.265360D-02  0.860968D-03 -0.836911D-03
     11  0.193596D-03  0.636055D-03  0.371134D-02 -0.193666D-03  0.635919D-03
     12 -0.148270D-02 -0.201661D-02 -0.240642D-02 -0.148280D-02  0.201638D-02
     13 -0.145957D+00 -0.135876D+00 -0.577750D-01 -0.145973D+00  0.135878D+00
     14 -0.182745D+00 -0.245606D+00 -0.694817D-01  0.182746D+00 -0.245583D+00
     15 -0.622185D-01 -0.538611D-01 -0.313438D-01 -0.622306D-01  0.538690D-01
                6             7             8             9            10 
      6  0.293141D-01
      7 -0.615237D-02  0.403461D-01
      8  0.845093D-02  0.000000D+00  0.471943D-01
      9  0.308487D-02 -0.704410D-04  0.000000D+00  0.418925D-01
     10  0.265382D-02 -0.242908D-01  0.000000D+00  0.334656D-02  0.148382D-01
     11 -0.371137D-02  0.000000D+00 -0.255374D-01 -0.161646D-05  0.000000D+00
     12 -0.240630D-02  0.612025D-02 -0.155173D-05 -0.886419D-01 -0.962147D-02
     13 -0.577855D-01 -0.127255D-01  0.000000D+00 -0.814549D-02  0.772939D-02
     14  0.694899D-01  0.000000D+00 -0.204000D-01  0.144968D-05  0.000000D+00
     15 -0.313501D-01  0.625685D-02  0.179794D-05  0.405874D-01  0.968156D-03
               11            12            13            14            15 
     11  0.139336D-01
     12  0.341861D-05  0.149988D+00
     13  0.000000D+00  0.646699D-02  0.296921D+00
     14  0.103297D-01 -0.163275D-05 -0.209466D-05  0.501254D+00
     15 -0.177144D-05 -0.565466D-01  0.117227D+00 -0.796870D-05  0.786587D-01
 Leave Link  716 at Tue Apr  9 21:53:36 2024, MaxMem=   104857600 cpu:               0.0 elap:               0.0
 (Enter /opt/g16/l123.exe)
 IRC-IRC-IRC-IRC-IRC-IRC-IRC-IRC-IRC-IRC-IRC-IRC-IRC-IRC-IRC-IRC-IRC-IRC
 Pt  5 Step number   1 out of a maximum of  10
 Using modified Bulirsch-Stoer corrector integration.
   Using distance weighted interpolants to fit PES.
 PreDWI: IReCr0= 2 IReCr1= 1 IReCr2= 1 IReCr3= 1
 Modified Bulirsch-Stoer Extrapolation Cycles:
    EPS =    0.000010000000000
    Cycle     1 NS=    48
      PEZero:  N= 2 I= 1 D=  1.63D-04 Err=  3.11D-06
    Cycle     2 NS=    64 Truncation Error =  0.000003107
 BS completed in    2 cycles and     112 integration steps.
 Maximum DWI energy   std dev =  0.000000234 at pt    24
 Maximum DWI gradient std dev =  0.006573605 at pt    17
 SUMMARY OF CORRECTOR INTEGRATION:
   Predictor End Point Energy =   -57.000378
   Old End Point Energy       =   -57.000378
   Corrected End Point Energy =   -57.000378
   Predictor End-Start Dist.  =     0.031287
   Old End-Start Dist.        =     0.031287
   New End-Start Dist.        =     0.031285
   New End-Old End Dist.      =     0.000177
 CORRECTOR INTEGRATION CONVERGENCE:
   Recorrection delta-x convergence threshold:    0.010000
   Delta-x Convergence Met
 Point Number:   5          Path Number:   1
                    CURRENT STRUCTURE
                Cartesian Coordinates (Ang):                
 ---------------------------------------------------------------------
 Center     Atomic                     Coordinates (Angstroms)
 Number     Number                        X           Y           Z
 ---------------------------------------------------------------------
      1          1                    0.513634    0.803074    0.443140
      2          1                    0.513675   -0.803025    0.443182
      3          1                    0.028776   -0.000036   -1.386627
      4          1                    0.090661   -0.000058   -2.258915
      5          7                   -0.082532    0.000003    0.198634
 ---------------------------------------------------------------------
   CHANGE IN THE REACTION COORDINATE =    0.03129
   NET REACTION COORDINATE UP TO THIS POINT =    0.15642
  # OF POINTS ALONG THE PATH =   5
  # OF STEPS =   1

 Calculating another point on the path.
 Point Number  6 in FORWARD path direction.
 Using LQA Reaction Path Following.
   LQA: T_Est iteration completed in    3 iterations.
 IRC-IRC-IRC-IRC-IRC-IRC-IRC-IRC-IRC-IRC-IRC-IRC-IRC-IRC-IRC-IRC-IRC-IRC
 Leave Link  123 at Tue Apr  9 21:53:36 2024, MaxMem=   104857600 cpu:               0.0 elap:               0.0
 (Enter /opt/g16/l202.exe)
                          Input orientation:                          
 ---------------------------------------------------------------------
 Center     Atomic      Atomic             Coordinates (Angstroms)
 Number     Number       Type             X           Y           Z
 ---------------------------------------------------------------------
      1          1           0        0.513730    0.803014    0.444641
      2          1           0        0.513770   -0.802965    0.444683
      3          1           0        0.029750   -0.000036   -1.400455
      4          1           0        0.090430   -0.000058   -2.266101
      5          7           0       -0.082599    0.000003    0.199936
 ---------------------------------------------------------------------
                    Distance matrix (angstroms):
                    1          2          3          4          5
     1  H    0.000000
     2  H    1.605979   0.000000
     3  H    2.069664   2.069663   0.000000
     4  H    2.858711   2.858710   0.867770   0.000000
     5  N    1.029716   1.029716   1.604330   2.472100   0.000000
 Symmetry turned off by external request.
 Stoichiometry    H4N(1-)
 Framework group  C1[X(H4N)]
 Deg. of freedom     9
 Full point group                 C1      NOp   1
 Rotational constants (GHZ):         261.0017260          57.7773690          53.7062953
 Leave Link  202 at Tue Apr  9 21:53:36 2024, MaxMem=   104857600 cpu:               0.0 elap:               0.0
 (Enter /opt/g16/l301.exe)
 Standard basis: STO-3G (5D, 7F)
 Ernie: Thresh=  0.10000D-02 Tol=  0.10000D-05 Strict=F.
     9 basis functions,    27 primitive gaussians,     9 cartesian basis functions
     6 alpha electrons        6 beta electrons
       nuclear repulsion energy        12.8229076648 Hartrees.
 IExCor=    0 DFT=F Ex=HF Corr=None ExCW=0 ScaHFX=  1.000000
 ScaDFX=  1.000000  1.000000  1.000000  1.000000 ScalE2=  1.000000  1.000000
 IRadAn=      5 IRanWt=     -1 IRanGd=            0 ICorTp=0 IEmpDi=  4
 NAtoms=    5 NActive=    5 NUniq=    5 SFac= 1.00D+00 NAtFMM=   60 NAOKFM=F Big=F
 Integral buffers will be    131072 words long.
 Raffenetti 1 integral format.
 Two-electron integral symmetry is turned off.
 Leave Link  301 at Tue Apr  9 21:53:37 2024, MaxMem=   104857600 cpu:               0.0 elap:               0.0
 (Enter /opt/g16/l402.exe)
 External calculation of energy, first and second derivatives.
 Running external command "python3 -u ../pes/h4n_anion_pes.py R"
         input file       "/home/jh-li/scratch/g16/Gau-1169495.EIn"
         output file      "/home/jh-li/scratch/g16/Gau-1169495.EOu"
         message file     "/home/jh-li/scratch/g16/Gau-1169495.EMs"
         fchk file        "/home/jh-li/scratch/g16/Gau-1169495.EFC"
         mat. el file     "/home/jh-li/scratch/g16/Gau-1169495.EUF"
 initialization done
 Recovered energy= -57.0004657038     dipole=      0.000000000000      0.000000000000      0.000000000000
 NRF= 0 NRA=   0 NVA=   0 HaveQM=F NVQ=       0
 Convergence limit is  0.750E-04 MaxStp= 10000 StMxLn= 3.00D-04 StpMin= 1.00D-06.
 Convergence criteria             0.00011250 0.00007500 0.00045000 0.00030000
  Step  NS  ND Rises OKQ   Scale  Max. Force  RMS Force Max. Disp.  RMS Disp.     Energy   Flag
     1   0   0   F    T  1.00D+00 0.00000000 0.00000000 0.00000000 0.00000000  -57.0004657 ====
 Running external command "python3 -u ../pes/h4n_anion_pes.py R"
         input file       "/home/jh-li/scratch/g16/Gau-1169495.EIn"
         output file      "/home/jh-li/scratch/g16/Gau-1169495.EOu"
         message file     "/home/jh-li/scratch/g16/Gau-1169495.EMs"
         fchk file        "/home/jh-li/scratch/g16/Gau-1169495.EFC"
         mat. el file     "/home/jh-li/scratch/g16/Gau-1169495.EUF"
 initialization done
 Recovered energy= -57.0004657038     dipole=      0.000000000000      0.000000000000      0.000000000000
 Energy=    -57.0004657     NIter=   0.
 Dipole moment=       0.000000       0.000000       0.000000
 Leave Link  402 at Tue Apr  9 21:53:37 2024, MaxMem=   104857600 cpu:               0.0 elap:               0.5
 (Enter /opt/g16/l716.exe)
 Dipole        = 0.00000000D+00 0.00000000D+00 0.00000000D+00
 -------------------------------------------------------------------
 Center     Atomic                   Forces (Hartrees/Bohr)
 Number     Number              X              Y              Z
 -------------------------------------------------------------------
      1        1           0.000013622   -0.000011379    0.000273994
      2        1           0.000013625    0.000011398    0.000273999
      3        1           0.000166170   -0.000000060   -0.002387200
      4        1          -0.000038933   -0.000000034   -0.001345748
      5        7          -0.000154298    0.000000075    0.003198477
 -------------------------------------------------------------------
 Cartesian Forces:  Max     0.003198477 RMS     0.001093732
 Force constants in Cartesian coordinates: 
                1             2             3             4             5 
      1  0.140981D+00
      2  0.158887D+00  0.273777D+00
      3  0.580169D-01  0.640984D-01  0.289140D-01
      4  0.566165D-02 -0.234050D-01  0.323591D-02  0.140997D+00
      5  0.234069D-01 -0.284614D-01  0.101622D-01 -0.158890D+00  0.273754D+00
      6  0.323521D-02 -0.101605D-01  0.135023D-02  0.580284D-01 -0.641081D-01
      7 -0.161837D-02 -0.560058D-03 -0.590034D-02 -0.161839D-02  0.559704D-03
      8  0.100380D-03 -0.611924D-03 -0.809311D-02 -0.100300D-03 -0.611584D-03
      9  0.236731D-02  0.194042D-02  0.313877D-02  0.236742D-02 -0.194011D-02
     10  0.847811D-03  0.807612D-03  0.261525D-02  0.847859D-03 -0.807467D-03
     11  0.171067D-03  0.616973D-03  0.365485D-02 -0.171137D-03  0.616840D-03
     12 -0.145788D-02 -0.198480D-02 -0.242779D-02 -0.145797D-02  0.198457D-02
     13 -0.145870D+00 -0.135734D+00 -0.579691D-01 -0.145886D+00  0.135736D+00
     14 -0.182566D+00 -0.245319D+00 -0.698234D-01  0.182568D+00 -0.245297D+00
     15 -0.621572D-01 -0.538956D-01 -0.309753D-01 -0.621693D-01  0.539036D-01
                6             7             8             9            10 
      6  0.289206D-01
      7 -0.590077D-02  0.393576D-01
      8  0.809303D-02  0.000000D+00  0.458832D-01
      9  0.313839D-02 -0.879187D-03  0.000000D+00  0.514701D-01
     10  0.261548D-02 -0.239595D-01  0.000000D+00  0.392025D-02  0.146965D-01
     11 -0.365488D-02  0.000000D+00 -0.251550D-01 -0.182612D-05  0.000000D+00
     12 -0.242767D-02  0.661995D-02 -0.176272D-05 -0.966403D-01 -0.997424D-02
     13 -0.579796D-01 -0.121594D-01  0.000000D+00 -0.777640D-02  0.756598D-02
     14  0.698316D-01  0.000000D+00 -0.195012D-01  0.138809D-05  0.000000D+00
     15 -0.309817D-01  0.606270D-02  0.172274D-05  0.389000D-01  0.823877D-03
               11            12            13            14            15 
     11  0.137905D-01
     12  0.358433D-05  0.156437D+00
     13  0.000000D+00  0.627040D-02  0.296345D+00
     14  0.101286D-01 -0.158803D-05 -0.207207D-05  0.499983D+00
     15 -0.172599D-05 -0.549545D-01  0.117443D+00 -0.795314D-05  0.780177D-01
 Leave Link  716 at Tue Apr  9 21:53:37 2024, MaxMem=   104857600 cpu:               0.0 elap:               0.0
 (Enter /opt/g16/l123.exe)
 IRC-IRC-IRC-IRC-IRC-IRC-IRC-IRC-IRC-IRC-IRC-IRC-IRC-IRC-IRC-IRC-IRC-IRC
 Pt  6 Step number   1 out of a maximum of  10
 Using modified Bulirsch-Stoer corrector integration.
   Using distance weighted interpolants to fit PES.
 PreDWI: IReCr0= 2 IReCr1= 1 IReCr2= 1 IReCr3= 1
 Modified Bulirsch-Stoer Extrapolation Cycles:
    EPS =    0.000010000000000
    Cycle     1 NS=    48
      PEZero:  N= 2 I= 1 D=  1.63D-04 Err=  2.72D-06
    Cycle     2 NS=    64 Truncation Error =  0.000002722
 BS completed in    2 cycles and     112 integration steps.
 Maximum DWI energy   std dev =  0.000000236 at pt    24
 Maximum DWI gradient std dev =  0.005346144 at pt    17
 SUMMARY OF CORRECTOR INTEGRATION:
   Predictor End Point Energy =   -57.000466
   Old End Point Energy       =   -57.000466
   Corrected End Point Energy =   -57.000466
   Predictor End-Start Dist.  =     0.031287
   Old End-Start Dist.        =     0.031287
   New End-Start Dist.        =     0.031286
   New End-Old End Dist.      =     0.000150
 CORRECTOR INTEGRATION CONVERGENCE:
   Recorrection delta-x convergence threshold:    0.010000
   Delta-x Convergence Met
 Point Number:   6          Path Number:   1
                    CURRENT STRUCTURE
                Cartesian Coordinates (Ang):                
 ---------------------------------------------------------------------
 Center     Atomic                     Coordinates (Angstroms)
 Number     Number                        X           Y           Z
 ---------------------------------------------------------------------
      1          1                    0.513729    0.803013    0.444645
      2          1                    0.513769   -0.802964    0.444687
      3          1                    0.029745   -0.000036   -1.400416
      4          1                    0.090433   -0.000058   -2.266169
      5          7                   -0.082599    0.000003    0.199938
 ---------------------------------------------------------------------
   CHANGE IN THE REACTION COORDINATE =    0.03129
   NET REACTION COORDINATE UP TO THIS POINT =    0.18770
  # OF POINTS ALONG THE PATH =   6
  # OF STEPS =   1

 Calculating another point on the path.
 Point Number  7 in FORWARD path direction.
 Using LQA Reaction Path Following.
   LQA: T_Est iteration completed in    3 iterations.
 IRC-IRC-IRC-IRC-IRC-IRC-IRC-IRC-IRC-IRC-IRC-IRC-IRC-IRC-IRC-IRC-IRC-IRC
 Leave Link  123 at Tue Apr  9 21:53:37 2024, MaxMem=   104857600 cpu:               0.0 elap:               0.0
 (Enter /opt/g16/l202.exe)
                          Input orientation:                          
 ---------------------------------------------------------------------
 Center     Atomic      Atomic             Coordinates (Angstroms)
 Number     Number       Type             X           Y           Z
 ---------------------------------------------------------------------
      1          1           0        0.513789    0.802949    0.446241
      2          1           0        0.513829   -0.802899    0.446282
      3          1           0        0.030690   -0.000037   -1.414029
      4          1           0        0.090187   -0.000058   -2.273727
      5          7           0       -0.082658    0.000003    0.201237
 ---------------------------------------------------------------------
                    Distance matrix (angstroms):
                    1          2          3          4          5
     1  H    0.000000
     2  H    1.605848   0.000000
     3  H    2.082972   2.082971   0.000000
     4  H    2.867487   2.867486   0.861754   0.000000
     5  N    1.029804   1.029804   1.619238   2.480992   0.000000
 Symmetry turned off by external request.
 Stoichiometry    H4N(1-)
 Framework group  C1[X(H4N)]
 Deg. of freedom     9
 Full point group                 C1      NOp   1
 Rotational constants (GHZ):         260.9949575          57.2287994          53.2346491
 Leave Link  202 at Tue Apr  9 21:53:37 2024, MaxMem=   104857600 cpu:               0.0 elap:               0.0
 (Enter /opt/g16/l301.exe)
 Standard basis: STO-3G (5D, 7F)
 Ernie: Thresh=  0.10000D-02 Tol=  0.10000D-05 Strict=F.
     9 basis functions,    27 primitive gaussians,     9 cartesian basis functions
     6 alpha electrons        6 beta electrons
       nuclear repulsion energy        12.7955466127 Hartrees.
 IExCor=    0 DFT=F Ex=HF Corr=None ExCW=0 ScaHFX=  1.000000
 ScaDFX=  1.000000  1.000000  1.000000  1.000000 ScalE2=  1.000000  1.000000
 IRadAn=      5 IRanWt=     -1 IRanGd=            0 ICorTp=0 IEmpDi=  4
 NAtoms=    5 NActive=    5 NUniq=    5 SFac= 1.00D+00 NAtFMM=   60 NAOKFM=F Big=F
 Integral buffers will be    131072 words long.
 Raffenetti 1 integral format.
 Two-electron integral symmetry is turned off.
 Leave Link  301 at Tue Apr  9 21:53:37 2024, MaxMem=   104857600 cpu:               0.0 elap:               0.0
 (Enter /opt/g16/l402.exe)
 External calculation of energy, first and second derivatives.
 Running external command "python3 -u ../pes/h4n_anion_pes.py R"
         input file       "/home/jh-li/scratch/g16/Gau-1169495.EIn"
         output file      "/home/jh-li/scratch/g16/Gau-1169495.EOu"
         message file     "/home/jh-li/scratch/g16/Gau-1169495.EMs"
         fchk file        "/home/jh-li/scratch/g16/Gau-1169495.EFC"
         mat. el file     "/home/jh-li/scratch/g16/Gau-1169495.EUF"
 initialization done
 Recovered energy= -57.0005598360     dipole=      0.000000000000      0.000000000000      0.000000000000
 NRF= 0 NRA=   0 NVA=   0 HaveQM=F NVQ=       0
 Convergence limit is  0.750E-04 MaxStp= 10000 StMxLn= 3.00D-04 StpMin= 1.00D-06.
 Convergence criteria             0.00011250 0.00007500 0.00045000 0.00030000
  Step  NS  ND Rises OKQ   Scale  Max. Force  RMS Force Max. Disp.  RMS Disp.     Energy   Flag
     1   0   0   F    T  1.00D+00 0.00000000 0.00000000 0.00000000 0.00000000  -57.0005598 ====
 Running external command "python3 -u ../pes/h4n_anion_pes.py R"
         input file       "/home/jh-li/scratch/g16/Gau-1169495.EIn"
         output file      "/home/jh-li/scratch/g16/Gau-1169495.EOu"
         message file     "/home/jh-li/scratch/g16/Gau-1169495.EMs"
         fchk file        "/home/jh-li/scratch/g16/Gau-1169495.EFC"
         mat. el file     "/home/jh-li/scratch/g16/Gau-1169495.EUF"
 initialization done
 Recovered energy= -57.0005598360     dipole=      0.000000000000      0.000000000000      0.000000000000
 Energy=    -57.0005598     NIter=   0.
 Dipole moment=       0.000000       0.000000       0.000000
 Leave Link  402 at Tue Apr  9 21:53:38 2024, MaxMem=   104857600 cpu:               0.0 elap:               0.5
 (Enter /opt/g16/l716.exe)
 Dipole        = 0.00000000D+00 0.00000000D+00 0.00000000D+00
 -------------------------------------------------------------------
 Center     Atomic                   Forces (Hartrees/Bohr)
 Number     Number              X              Y              Z
 -------------------------------------------------------------------
      1        1           0.000007684   -0.000012873    0.000309655
      2        1           0.000007687    0.000012894    0.000309659
      3        1           0.000171948   -0.000000063   -0.002508091
      4        1          -0.000045432   -0.000000038   -0.001491244
      5        7          -0.000141718    0.000000081    0.003393504
 -------------------------------------------------------------------
 Cartesian Forces:  Max     0.003393504 RMS     0.001162587
 Force constants in Cartesian coordinates: 
                1             2             3             4             5 
      1  0.140874D+00
      2  0.158745D+00  0.273542D+00
      3  0.580663D-01  0.641807D-01  0.285754D-01
      4  0.563738D-02 -0.233898D-01  0.319223D-02  0.140890D+00
      5  0.233917D-01 -0.284975D-01  0.101522D-01 -0.158748D+00  0.273520D+00
      6  0.319153D-02 -0.101505D-01  0.134483D-02  0.580778D-01 -0.641904D-01
      7 -0.157509D-02 -0.547965D-03 -0.566424D-02 -0.157511D-02  0.547625D-03
      8  0.977576D-04 -0.597869D-03 -0.775849D-02 -0.976802D-04 -0.597543D-03
[...]
                    CURRENT STRUCTURE
                Cartesian Coordinates (Ang):                
 ---------------------------------------------------------------------
 Center     Atomic                     Coordinates (Angstroms)
 Number     Number                        X           Y           Z
 ---------------------------------------------------------------------
      1          1                    0.506060    0.805769    0.414231
      2          1                    0.506101   -0.805721    0.414273
      3          1                   -0.111871   -0.000025   -0.841848
      4          1                    0.180536   -0.000067   -2.697582
      5          7                   -0.077792    0.000003    0.195192
 ---------------------------------------------------------------------
   CHANGE IN THE REACTION COORDINATE =    0.03128
   NET REACTION COORDINATE UP TO THIS POINT =    1.65782
  # OF POINTS ALONG THE PATH = 142
  # OF STEPS =   1

 Calculating another point on the path.
 Point Number 54 in REVERSE path direction.
 Using LQA Reaction Path Following.
   LQA: T_Est iteration completed in    2 iterations.
 IRC-IRC-IRC-IRC-IRC-IRC-IRC-IRC-IRC-IRC-IRC-IRC-IRC-IRC-IRC-IRC-IRC-IRC
 Leave Link  123 at Tue Apr  9 21:55:04 2024, MaxMem=   104857600 cpu:               0.0 elap:               0.0
 (Enter /opt/g16/l202.exe)
                          Input orientation:                          
 ---------------------------------------------------------------------
 Center     Atomic      Atomic             Coordinates (Angstroms)
 Number     Number       Type             X           Y           Z
 ---------------------------------------------------------------------
      1          1           0        0.507417    0.805647    0.411814
      2          1           0        0.507458   -0.805599    0.411856
      3          1           0       -0.116980   -0.000025   -0.840043
      4          1           0        0.184701   -0.000067   -2.711312
      5          7           0       -0.077922    0.000003    0.196423
 ---------------------------------------------------------------------
                    Distance matrix (angstroms):
                    1          2          3          4          5
     1  H    0.000000
     2  H    1.611246   0.000000
     3  H    1.614349   1.614349   0.000000
     4  H    3.241486   3.241486   1.895431   0.000000
     5  N    1.018861   1.018861   1.037201   2.919571   0.000000
 Symmetry turned off by external request.
 Stoichiometry    H4N(1-)
 Framework group  C1[X(H4N)]
 Deg. of freedom     9
 Full point group                 C1      NOp   1
 Rotational constants (GHZ):         258.4134632          52.3476724          48.9945297
 Leave Link  202 at Tue Apr  9 21:55:04 2024, MaxMem=   104857600 cpu:               0.0 elap:               0.0
 (Enter /opt/g16/l301.exe)
 Standard basis: STO-3G (5D, 7F)
 Ernie: Thresh=  0.10000D-02 Tol=  0.10000D-05 Strict=F.
     9 basis functions,    27 primitive gaussians,     9 cartesian basis functions
     6 alpha electrons        6 beta electrons
       nuclear repulsion energy        13.7011890790 Hartrees.
 IExCor=    0 DFT=F Ex=HF Corr=None ExCW=0 ScaHFX=  1.000000
 ScaDFX=  1.000000  1.000000  1.000000  1.000000 ScalE2=  1.000000  1.000000
 IRadAn=      5 IRanWt=     -1 IRanGd=            0 ICorTp=0 IEmpDi=  4
 NAtoms=    5 NActive=    5 NUniq=    5 SFac= 1.00D+00 NAtFMM=   60 NAOKFM=F Big=F
 Integral buffers will be    131072 words long.
 Raffenetti 1 integral format.
 Two-electron integral symmetry is turned off.
 Leave Link  301 at Tue Apr  9 21:55:04 2024, MaxMem=   104857600 cpu:               0.0 elap:               0.0
 (Enter /opt/g16/l402.exe)
 External calculation of energy, first and second derivatives.
 Running external command "python3 -u ../pes/h4n_anion_pes.py R"
         input file       "/home/jh-li/scratch/g16/Gau-1169495.EIn"
         output file      "/home/jh-li/scratch/g16/Gau-1169495.EOu"
         message file     "/home/jh-li/scratch/g16/Gau-1169495.EMs"
         fchk file        "/home/jh-li/scratch/g16/Gau-1169495.EFC"
         mat. el file     "/home/jh-li/scratch/g16/Gau-1169495.EUF"
 initialization done
 Recovered energy= -57.0211447029     dipole=      0.000000000000      0.000000000000      0.000000000000
 NRF= 0 NRA=   0 NVA=   0 HaveQM=F NVQ=       0
 Convergence limit is  0.750E-04 MaxStp= 10000 StMxLn= 3.00D-04 StpMin= 1.00D-06.
 Convergence criteria             0.00011250 0.00007500 0.00045000 0.00030000
  Step  NS  ND Rises OKQ   Scale  Max. Force  RMS Force Max. Disp.  RMS Disp.     Energy   Flag
     1   0   0   F    T  1.00D+00 0.00000000 0.00000000 0.00000000 0.00000000  -57.0211447 ====
 Running external command "python3 -u ../pes/h4n_anion_pes.py R"
         input file       "/home/jh-li/scratch/g16/Gau-1169495.EIn"
         output file      "/home/jh-li/scratch/g16/Gau-1169495.EOu"
         message file     "/home/jh-li/scratch/g16/Gau-1169495.EMs"
         fchk file        "/home/jh-li/scratch/g16/Gau-1169495.EFC"
         mat. el file     "/home/jh-li/scratch/g16/Gau-1169495.EUF"
 initialization done
 Recovered energy= -57.0211447029     dipole=      0.000000000000      0.000000000000      0.000000000000
 Energy=    -57.0211447     NIter=   0.
 Dipole moment=       0.000000       0.000000       0.000000
 Leave Link  402 at Tue Apr  9 21:55:04 2024, MaxMem=   104857600 cpu:               0.0 elap:               0.5
 (Enter /opt/g16/l716.exe)
 Dipole        = 0.00000000D+00 0.00000000D+00 0.00000000D+00
 -------------------------------------------------------------------
 Center     Atomic                   Forces (Hartrees/Bohr)
 Number     Number              X              Y              Z
 -------------------------------------------------------------------
      1        1           0.000010739   -0.000004134   -0.000027025
      2        1           0.000010744    0.000004136   -0.000027026
      3        1          -0.000052479   -0.000000001    0.000022289
      4        1           0.000041731   -0.000000001   -0.000126769
      5        7          -0.000011488   -0.000000001    0.000163773
 -------------------------------------------------------------------
 Cartesian Forces:  Max     0.000163773 RMS     0.000057586
 Force constants in Cartesian coordinates: 
                1             2             3             4             5 
      1  0.152178D+00
      2  0.174304D+00  0.299589D+00
      3  0.631583D-01  0.661876D-01  0.610412D-01
      4  0.836415D-02 -0.232748D-01  0.637274D-02  0.152196D+00
      5  0.232770D-01 -0.280365D-01  0.892756D-02 -0.174308D+00  0.299564D+00
      6  0.637198D-02 -0.892573D-02  0.673354D-03  0.631709D-01 -0.661968D-01
      7 -0.615410D-02 -0.288474D-02 -0.239728D-01 -0.615448D-02  0.288331D-02
      8 -0.452926D-02 -0.270343D-02 -0.356383D-01  0.452929D-02 -0.270131D-02
      9  0.390321D-02  0.259015D-02 -0.789967D-02  0.390311D-02 -0.259022D-02
     10  0.201083D-03  0.764020D-03  0.115942D-02  0.201148D-03 -0.763962D-03
     11  0.504870D-03  0.261360D-03  0.154913D-02 -0.504908D-03  0.261240D-03
     12 -0.667900D-03 -0.511921D-03  0.740465D-04 -0.667899D-03  0.511876D-03
     13 -0.154588D+00 -0.148915D+00 -0.467218D-01 -0.154605D+00  0.148918D+00
     14 -0.193561D+00 -0.269107D+00 -0.410283D-01  0.193563D+00 -0.269084D+00
     15 -0.727591D-01 -0.593380D-01 -0.538869D-01 -0.727723D-01  0.593455D-01
                6             7             8             9            10 
      6  0.610481D-01
      7 -0.239748D-01  0.405980D-01
      8  0.356368D-01  0.000000D+00  0.692994D-01
      9 -0.790141D-02  0.314246D-01  0.834991D-05  0.357117D+00
     10  0.115954D-02 -0.515054D-02  0.000000D+00 -0.322303D-02  0.134689D-02
     11 -0.154908D-02  0.000000D+00 -0.532789D-02  0.000000D+00  0.000000D+00
     12  0.741047D-04 -0.143277D-02  0.000000D+00  0.647692D-02 -0.157878D-03
     13 -0.467318D-01 -0.231399D-01  0.000000D+00 -0.360047D-01  0.340154D-02
     14  0.410372D-01  0.137891D-05 -0.585631D-01 -0.851163D-05  0.000000D+00
     15 -0.538921D-01  0.179574D-01 -0.712676D-05 -0.347803D+00  0.106085D-02
               11            12            13            14            15 
     11  0.105648D-02
     12  0.000000D+00  0.685612D-02
     13  0.000000D+00  0.292645D-02  0.328929D+00
     14  0.374865D-02  0.000000D+00 -0.345998D-05  0.592996D+00
     15  0.000000D+00 -0.134768D-01  0.126518D+00  0.000000D+00  0.469061D+00
 Leave Link  716 at Tue Apr  9 21:55:04 2024, MaxMem=   104857600 cpu:               0.0 elap:               0.0
 (Enter /opt/g16/l123.exe)
 IRC-IRC-IRC-IRC-IRC-IRC-IRC-IRC-IRC-IRC-IRC-IRC-IRC-IRC-IRC-IRC-IRC-IRC
 Pt143 Step number   1 out of a maximum of  10
 Using modified Bulirsch-Stoer corrector integration.
   Using distance weighted interpolants to fit PES.
 PreDWI: IReCr0= 2 IReCr1= 1 IReCr2= 1 IReCr3= 1
 Modified Bulirsch-Stoer Extrapolation Cycles:
    EPS =    0.000010000000000
    Cycle     1 NS=    48
      PEZero:  N= 2 I= 1 D=  1.63D-04 Err=  7.54D-06
    Cycle     2 NS=    64 Truncation Error =  0.000007542
 BS completed in    2 cycles and     112 integration steps.
 Maximum DWI energy   std dev =  0.000000005 at pt    38
 Maximum DWI gradient std dev =  0.005680110 at pt    50
 SUMMARY OF CORRECTOR INTEGRATION:
   Predictor End Point Energy =   -57.021145
   Old End Point Energy       =   -57.021145
   Corrected End Point Energy =   -57.021145
   Predictor End-Start Dist.  =     0.031282
   Old End-Start Dist.        =     0.031282
   New End-Start Dist.        =     0.031272
   New End-Old End Dist.      =     0.000059
 CORRECTOR INTEGRATION CONVERGENCE:
   Recorrection delta-x convergence threshold:    0.010000
   Delta-x Convergence Met
 Point Number:  54          Path Number:   2
                    CURRENT STRUCTURE
                Cartesian Coordinates (Ang):                
 ---------------------------------------------------------------------
 Center     Atomic                     Coordinates (Angstroms)
 Number     Number                        X           Y           Z
 ---------------------------------------------------------------------
      1          1                    0.507401    0.805648    0.411825
      2          1                    0.507442   -0.805601    0.411867
      3          1                   -0.116973   -0.000025   -0.840037
      4          1                    0.184700   -0.000067   -2.711317
      5          7                   -0.077921    0.000003    0.196422
 ---------------------------------------------------------------------
   CHANGE IN THE REACTION COORDINATE =    0.03127
   NET REACTION COORDINATE UP TO THIS POINT =    1.68909
  # OF POINTS ALONG THE PATH = 143
  # OF STEPS =   1

 Calculating another point on the path.
 Point Number 55 in REVERSE path direction.
 Using LQA Reaction Path Following.
   LQA: T_Est iteration completed in    2 iterations.
 PES minimum detected within a second-order step.
 Calculation of REVERSE path complete.
 Reaction path calculation complete.
 
 Energies reported relative to the TS energy of         -57.000132
 --------------------------------------------------------------------------
    Summary of reaction path following
 --------------------------------------------------------------------------
                        Energy    RxCoord
   1                   -0.02101  -1.68909
   2                   -0.02101  -1.65782
   3                   -0.02099  -1.62654
   4                   -0.02097  -1.59525
   5                   -0.02094  -1.56396
   6                   -0.02090  -1.53267
   7                   -0.02086  -1.50138
   8                   -0.02080  -1.47009
   9                   -0.02074  -1.43881
  10                   -0.02066  -1.40752
  11                   -0.02058  -1.37623
  12                   -0.02049  -1.34494
  13                   -0.02038  -1.31365
  14                   -0.02026  -1.28236
  15                   -0.02013  -1.25107
  16                   -0.01998  -1.21978
  17                   -0.01983  -1.18850
  18                   -0.01965  -1.15721
  19                   -0.01946  -1.12592
  20                   -0.01926  -1.09463
  21                   -0.01903  -1.06334
  22                   -0.01879  -1.03206
  23                   -0.01853  -1.00077
  24                   -0.01825  -0.96948
  25                   -0.01794  -0.93820
  26                   -0.01761  -0.90694
  27                   -0.01724  -0.87572
  28                   -0.01682  -0.84454
  29                   -0.01632  -0.81334
  30                   -0.01570  -0.78210
  31                   -0.01498  -0.75083
  32                   -0.01416  -0.71956
  33                   -0.01325  -0.68827
  34                   -0.01228  -0.65699
  35                   -0.01126  -0.62570
  36                   -0.01022  -0.59442
  37                   -0.00918  -0.56313
  38                   -0.00815  -0.53184
  39                   -0.00715  -0.50055
  40                   -0.00620  -0.46927
  41                   -0.00529  -0.43798
  42                   -0.00446  -0.40669
  43                   -0.00369  -0.37541
  44                   -0.00300  -0.34412
  45                   -0.00238  -0.31284
  46                   -0.00185  -0.28155
  47                   -0.00139  -0.25026
  48                   -0.00101  -0.21898
  49                   -0.00070  -0.18770
  50                   -0.00046  -0.15641
  51                   -0.00028  -0.12513
  52                   -0.00015  -0.09385
  53                   -0.00006  -0.06256
  54                   -0.00001  -0.03129
  55                    0.00000   0.00000
  56                   -0.00001   0.03129
  57                   -0.00005   0.06256
  58                   -0.00010   0.09385
  59                   -0.00017   0.12513
  60                   -0.00025   0.15642
  61                   -0.00033   0.18770
  62                   -0.00043   0.21899
  63                   -0.00053   0.25028
  64                   -0.00063   0.28156
  65                   -0.00074   0.31285
  66                   -0.00084   0.34414
  67                   -0.00095   0.37542
  68                   -0.00106   0.40671
  69                   -0.00117   0.43800
  70                   -0.00127   0.46929
  71                   -0.00138   0.50057
  72                   -0.00148   0.53186
  73                   -0.00158   0.56315
  74                   -0.00168   0.59444
  75                   -0.00178   0.62572
  76                   -0.00187   0.65701
  77                   -0.00196   0.68830
  78                   -0.00205   0.71959
  79                   -0.00214   0.75087
  80                   -0.00222   0.78216
  81                   -0.00231   0.81345
  82                   -0.00238   0.84473
  83                   -0.00246   0.87602
  84                   -0.00254   0.90731
  85                   -0.00261   0.93859
  86                   -0.00268   0.96988
  87                   -0.00274   1.00116
  88                   -0.00281   1.03245
  89                   -0.00287   1.06374
  90                   -0.00293   1.09502
  91                   -0.00299   1.12631
  92                   -0.00305   1.15759
  93                   -0.00311   1.18888
  94                   -0.00316   1.22016
  95                   -0.00322   1.25145
  96                   -0.00327   1.28274
  97                   -0.00332   1.31402
  98                   -0.00337   1.34531
  99                   -0.00342   1.37659
 100                   -0.00347   1.40788
 101                   -0.00351   1.43917
 102                   -0.00356   1.47045
 103                   -0.00360   1.50174
 104                   -0.00364   1.53302
 105                   -0.00368   1.56431
 106                   -0.00372   1.59560
 107                   -0.00376   1.62688
 108                   -0.00380   1.65817
 109                   -0.00384   1.68946
 110                   -0.00388   1.72074
 111                   -0.00391   1.75203
 112                   -0.00395   1.78332
 113                   -0.00398   1.81460
 114                   -0.00401   1.84589
 115                   -0.00404   1.87718
 116                   -0.00407   1.90846
 117                   -0.00410   1.93975
 118                   -0.00413   1.97104
 119                   -0.00416   2.00232
 120                   -0.00418   2.03361
 121                   -0.00421   2.06490
 122                   -0.00423   2.09618
 123                   -0.00425   2.12747
 124                   -0.00427   2.15876
 125                   -0.00429   2.19005
 126                   -0.00431   2.22133
 127                   -0.00433   2.25262
 128                   -0.00435   2.28391
 129                   -0.00437   2.31519
 130                   -0.00438   2.34648
 131                   -0.00440   2.37777
 132                   -0.00441   2.40905
 133                   -0.00443   2.44034
 134                   -0.00444   2.47163
 135                   -0.00445   2.50292
 136                   -0.00446   2.53420
 137                   -0.00447   2.56549
 138                   -0.00448   2.59678
 139                   -0.00449   2.62807
 140                   -0.00450   2.65935
 141                   -0.00450   2.69064
 142                   -0.00451   2.72193
 143                   -0.00451   2.75322
 144                   -0.00452   2.78450
 --------------------------------------------------------------------------
 
 Total number of points:                  143
 Total number of gradient calculations:   144
 Total number of Hessian calculations:    144
 IRC-IRC-IRC-IRC-IRC-IRC-IRC-IRC-IRC-IRC-IRC-IRC-IRC-IRC-IRC-IRC-IRC-IRC
 Leave Link  123 at Tue Apr  9 21:55:04 2024, MaxMem=   104857600 cpu:               0.0 elap:               0.1
 (Enter /opt/g16/l202.exe)
                          Input orientation:                          
 ---------------------------------------------------------------------
 Center     Atomic      Atomic             Coordinates (Angstroms)
 Number     Number       Type             X           Y           Z
 ---------------------------------------------------------------------
      1          1           0        0.507417    0.805647    0.411814
      2          1           0        0.507458   -0.805599    0.411856
      3          1           0       -0.116980   -0.000025   -0.840043
      4          1           0        0.184701   -0.000067   -2.711312
      5          7           0       -0.077922    0.000003    0.196423
 ---------------------------------------------------------------------
                    Distance matrix (angstroms):
                    1          2          3          4          5
     1  H    0.000000
     2  H    1.611246   0.000000
     3  H    1.614349   1.614349   0.000000
     4  H    3.241486   3.241486   1.895431   0.000000
     5  N    1.018861   1.018861   1.037201   2.919571   0.000000
 Symmetry turned off by external request.
 Stoichiometry    H4N(1-)
 Framework group  C1[X(H4N)]
 Deg. of freedom     9
 Full point group                 C1      NOp   1
 Rotational constants (GHZ):         258.4134632          52.3476724          48.9945297
 Leave Link  202 at Tue Apr  9 21:55:04 2024, MaxMem=   104857600 cpu:               0.0 elap:               0.0
 (Enter /opt/g16/l601.exe)
 Leave Link  601 at Tue Apr  9 21:55:04 2024, MaxMem=   104857600 cpu:               0.1 elap:               0.1
 (Enter /opt/g16/l9999.exe)

 This type of calculation cannot be archived.


 I FIND THAT THE THREE TRULY GREAT TIMES FOR THINKING THOUGHTS
 ARE WHEN I AM STANDING IN THE SHOWER, SITTING ON THE JOHN, OR WALKING.

                                    -- COLIN FLETCHER
 Job cpu time:       0 days  0 hours  0 minutes 27.0 seconds.
 Elapsed time:       0 days  0 hours  1 minutes 28.0 seconds.
 File lengths (MBytes):  RWF=      6 Int=      0 D2E=      0 Chk=      2 Scr=      1
 Normal termination of Gaussian 16 at Tue Apr  9 21:55:04 2024.
