 Entering Gaussian System, Link 0=g16
 Initial command:
 /opt/g16/l1.exe "/home/jh-li/scratch/g16/Gau-1176971.inp" -scrdir="/home/jh-li/scratch/g16/"
 Entering Link 1 = /opt/g16/l1.exe PID=   1176974.
  
 Copyright (c) 1988-2019, Gaussian, Inc.  All Rights Reserved.
  
 This is part of the Gaussian(R) 16 program.  It is based on
 the Gaussian(R) 09 system (copyright 2009, Gaussian, Inc.),
 the Gaussian(R) 03 system (copyright 2003, Gaussian, Inc.),
 the Gaussian(R) 98 system (copyright 1998, Gaussian, Inc.),
 the Gaussian(R) 94 system (copyright 1995, Gaussian, Inc.),
 the Gaussian 92(TM) system (copyright 1992, Gaussian, Inc.),
 the Gaussian 90(TM) system (copyright 1990, Gaussian, Inc.),
 the Gaussian 88(TM) system (copyright 1988, Gaussian, Inc.),
 the Gaussian 86(TM) system (copyright 1986, Carnegie Mellon
 University), and the Gaussian 82(TM) system (copyright 1983,
 Carnegie Mellon University). Gaussian is a federally registered
 trademark of Gaussian, Inc.
  
 This software contains proprietary and confidential information,
 including trade secrets, belonging to Gaussian, Inc.
  
 This software is provided under written license and may be
 used, copied, transmitted, or stored only in accord with that
 written license.
  
 The following legend is applicable only to US Government
 contracts under FAR:
  
                    RESTRICTED RIGHTS LEGEND
  
 Use, reproduction and disclosure by the US Government is
 subject to restrictions as set forth in subparagraphs (a)
 and (c) of the Commercial Computer Software - Restricted
 Rights clause in FAR 52.227-19.
  
 Gaussian, Inc.
 340 Quinnipiac St., Bldg. 40, Wallingford CT 06492
  
  
 ---------------------------------------------------------------
 Warning -- This program may not be used in any manner that
 competes with the business of Gaussian, Inc. or will provide
 assistance to any competitor of Gaussian, Inc.  The licensee
 of this program is prohibited from giving any competitor of
 Gaussian, Inc. access to this program.  By using this program,
 the user acknowledges that Gaussian, Inc. is engaged in the
 business of creating and licensing software in the field of
 computational chemistry and represents and warrants to the
 licensee that it is not a competitor of Gaussian, Inc. and that
 it will not use this program in any manner prohibited above.
 ---------------------------------------------------------------
  

 Cite this work as:
 Gaussian 16, Revision C.01,
 M. J. Frisch, G. W. Trucks, H. B. Schlegel, G. E. Scuseria, 
 M. A. Robb, J. R. Cheeseman, G. Scalmani, V. Barone, 
 G. A. Petersson, H. Nakatsuji, X. Li, M. Caricato, A. V. Marenich, 
 J. Bloino, B. G. Janesko, R. Gomperts, B. Mennucci, H. P. Hratchian, 
 J. V. Ortiz, A. F. Izmaylov, J. L. Sonnenberg, D. Williams-Young, 
 F. Ding, F. Lipparini, F. Egidi, J. Goings, B. Peng, A. Petrone, 
 T. Henderson, D. Ranasinghe, V. G. Zakrzewski, J. Gao, N. Rega, 
 G. Zheng, W. Liang, M. Hada, M. Ehara, K. Toyota, R. Fukuda, 
 J. Hasegawa, M. Ishida, T. Nakajima, Y. Honda, O. Kitao, H. Nakai, 
 T. Vreven, K. Throssell, J. A. Montgomery, Jr., J. E. Peralta, 
 F. Ogliaro, M. J. Bearpark, J. J. Heyd, E. N. Brothers, K. N. Kudin, 
 V. N. Staroverov, T. A. Keith, R. Kobayashi, J. Normand, 
 K. Raghavachari, A. P. Rendell, J. C. Burant, S. S. Iyengar, 
 J. Tomasi, M. Cossi, J. M. Millam, M. Klene, C. Adamo, R. Cammi, 
 J. W. Ochterski, R. L. Martin, K. Morokuma, O. Farkas, 
 J. B. Foresman, and D. J. Fox, Gaussian, Inc., Wallingford CT, 2019.
 
 ******************************************
 Gaussian 16:  ES64L-G16RevC.01  3-Jul-2019
                 9-Apr-2024 
 ******************************************
 %nproc=1
 Will use up to    1 processors via shared memory.
 %oldchk=ts2-opt-freq.chk
 Copying data from "ts2-opt-freq.chk" to current chk file "/home/jh-li/scratch/g16/Gau-1176974.chk"
 IOpt=  2 FromEx=T IUOpen= 4 IOptOp= 5 NList=   0 IFRang= 0 IUIn= 4 IUOut= 2.
 ----------------------------------------------------------------------
 #p external="python3 -u ../pes/h4n_anion_pes.py" irc=(calcall,stepsize
 =10,maxpoint=100,lqa) geom=allcheck
 ----------------------------------------------------------------------
 1/10=4,18=10,26=1,29=7,38=1,39=10,42=100,44=3,45=2,71=1,172=1/1,23;
 2/12=2,29=1,40=1/2;
 3/11=9,14=-4,25=1,30=1,41=9900000,43=2,71=2,140=1/1;
 4/20=17,22=2,24=3,113=1,114=1/2;
 6/7=2,8=2,9=2,10=2,18=1/1;
 7/25=1,44=-1/16;
 1/10=4,18=10,26=1,39=10,42=100,44=3,45=2,71=1/23(2);
 2/29=1/2;
 99/5=20/99;
 2/29=1/2;
 3/11=9,14=-2,25=1,30=1,41=9900000,43=2,71=2,140=1/1;
 4/16=2,20=17,22=2,24=3,113=1,114=1/2;
 7/25=1,44=-1/16;
 1/10=4,18=10,26=1,39=10,42=100,44=3,45=2,71=1/23(-4);
 2/29=1/2;
 6/7=2,8=2,9=2,10=2,18=1/1;
 99/5=20/99;
 Leave Link    1 at Tue Apr  9 22:07:48 2024, MaxMem=   104857600 cpu:               0.0 elap:               0.0
 (Enter /opt/g16/l101.exe)
 Structure from the checkpoint file:  "/home/jh-li/scratch/g16/Gau-1176974.chk"
 ----------------------
 H^- + NH3 -> H^- + NH3
 ----------------------
 Charge = -1 Multiplicity = 1
 Redundant internal coordinates found in file.  (old form).
 H,0,0.3698926699,-1.362278011,-1.5494871533
 H,0,-0.1498546844,0.0817774331,-2.013077075
 H,0,0.18807997,-0.1471608383,-0.5195434762
 H,0,1.4776438909,1.8926343706,-1.3011976297
 N,0,-0.2835011863,-0.6253227744,-1.2886815259
 Recover connectivity data from disk.
 ITRead=  0  0  0  0  0
 MicOpt= -1 -1 -1 -1 -1
 NAtoms=      5 NQM=        5 NQMF=       0 NMMI=      0 NMMIF=      0
                NMic=       0 NMicF=      0.
                    Isotopes and Nuclear Properties:
 (Nuclear quadrupole moments (NQMom) in fm**2, nuclear magnetic moments (NMagM)
  in nuclear magnetons)

  Atom         1           2           3           4           5
 IAtWgt=           1           1           1           1          14
 AtmWgt=   1.0078250   1.0078250   1.0078250   1.0078250  14.0030740
 NucSpn=           1           1           1           1           2
 AtZEff=   1.0000000   1.0000000   1.0000000   1.0000000   4.5500000
 NQMom=    0.0000000   0.0000000   0.0000000   0.0000000   2.0440000
 NMagM=    2.7928460   2.7928460   2.7928460   2.7928460   0.4037610
 AtZNuc=   1.0000000   1.0000000   1.0000000   1.0000000   7.0000000
 Leave Link  101 at Tue Apr  9 22:07:48 2024, MaxMem=   104857600 cpu:               0.2 elap:               0.2
 (Enter /opt/g16/l123.exe)
 IRC-IRC-IRC-IRC-IRC-IRC-IRC-IRC-IRC-IRC-IRC-IRC-IRC-IRC-IRC-IRC-IRC-IRC
 ------------------------------------------------------------------------
 INPUT DATA FOR L123
 ------------------------------------------------------------------------
 GENERAL PARAMETERS:
 Follow reaction path in both directions.
 Maximum points per path      = 100
 Step size                    =   0.100 bohr
 Integration scheme           = LQA                                 
 Initial Hessian              = CalcFC
 Hessian evaluation           = Analytic at all predictor steps
                              = Update at all corrector steps
 Hessian updating method      = Bofill                              
 ------------------------------------------------------------------------
 IRC-IRC-IRC-IRC-IRC-IRC-IRC-IRC-IRC-IRC-IRC-IRC-IRC-IRC-IRC-IRC-IRC-IRC
 Leave Link  123 at Tue Apr  9 22:07:48 2024, MaxMem=   104857600 cpu:               0.0 elap:               0.0
 (Enter /opt/g16/l202.exe)
                          Input orientation:                          
 ---------------------------------------------------------------------
 Center     Atomic      Atomic             Coordinates (Angstroms)
 Number     Number       Type             X           Y           Z
 ---------------------------------------------------------------------
      1          1           0        0.369893   -1.362278   -1.549487
      2          1           0       -0.149855    0.081777   -2.013077
      3          1           0        0.188080   -0.147161   -0.519543
      4          1           0        1.477644    1.892634   -1.301198
      5          7           0       -0.283501   -0.625323   -1.288682
 ---------------------------------------------------------------------
                    Distance matrix (angstroms):
                    1          2          3          4          5
     1  H    0.000000
     2  H    1.603231   0.000000
     3  H    1.603231   1.548307   0.000000
     4  H    3.447204   2.536676   2.536676   0.000000
     5  N    1.018845   1.021078   1.021078   3.072767   0.000000
 Symmetry turned off by external request.
 Stoichiometry    H4N(1-)
 Framework group  C1[X(H4N)]
 Deg. of freedom     9
 Full point group                 C1      NOp   1
 Rotational constants (GHZ):         235.1731226          48.3922967          47.1857094
 Leave Link  202 at Tue Apr  9 22:07:48 2024, MaxMem=   104857600 cpu:               0.0 elap:               0.0
 (Enter /opt/g16/l301.exe)
 Standard basis: STO-3G (5D, 7F)
 Ernie: Thresh=  0.10000D-02 Tol=  0.10000D-05 Strict=F.
     9 basis functions,    27 primitive gaussians,     9 cartesian basis functions
     6 alpha electrons        6 beta electrons
       nuclear repulsion energy        13.6694225311 Hartrees.
 IExCor=    0 DFT=F Ex=HF Corr=None ExCW=0 ScaHFX=  1.000000
 ScaDFX=  1.000000  1.000000  1.000000  1.000000 ScalE2=  1.000000  1.000000
 IRadAn=      5 IRanWt=     -1 IRanGd=            0 ICorTp=0 IEmpDi=  4
 NAtoms=    5 NActive=    5 NUniq=    5 SFac= 1.00D+00 NAtFMM=   60 NAOKFM=F Big=F
 Integral buffers will be    131072 words long.
 Raffenetti 1 integral format.
 Two-electron integral symmetry is turned off.
 Leave Link  301 at Tue Apr  9 22:07:48 2024, MaxMem=   104857600 cpu:               0.1 elap:               0.0
 (Enter /opt/g16/l402.exe)
 External calculation of energy, first and second derivatives.
 Running external command "python3 -u ../pes/h4n_anion_pes.py R"
         input file       "/home/jh-li/scratch/g16/Gau-1176974.EIn"
         output file      "/home/jh-li/scratch/g16/Gau-1176974.EOu"
         message file     "/home/jh-li/scratch/g16/Gau-1176974.EMs"
         fchk file        "/home/jh-li/scratch/g16/Gau-1176974.EFC"
         mat. el file     "/home/jh-li/scratch/g16/Gau-1176974.EUF"
 initialization done
 Recovered energy= -57.0183686698     dipole=      0.000000000000      0.000000000000      0.000000000000
 Energy=    -57.0183687     NIter=   0.
 Dipole moment=       0.000000       0.000000       0.000000
 Leave Link  402 at Tue Apr  9 22:07:49 2024, MaxMem=   104857600 cpu:               0.0 elap:               0.3
 (Enter /opt/g16/l601.exe)
 Leave Link  601 at Tue Apr  9 22:07:49 2024, MaxMem=   104857600 cpu:               0.0 elap:               0.0
 (Enter /opt/g16/l716.exe)
 Dipole        = 0.00000000D+00 0.00000000D+00 0.00000000D+00
 -------------------------------------------------------------------
 Center     Atomic                   Forces (Hartrees/Bohr)
 Number     Number              X              Y              Z
 -------------------------------------------------------------------
      1        1          -0.000050680    0.000005143    0.000023175
      2        1          -0.000007193    0.000004367    0.000003855
      3        1          -0.000018589   -0.000007815    0.000002957
      4        1          -0.000006446    0.000003376    0.000001956
      5        7           0.000082601   -0.000005265   -0.000031472
 -------------------------------------------------------------------
 Cartesian Forces:  Max     0.000082601 RMS     0.000027726
 Force constants in Cartesian coordinates: 
                1             2             3             4             5 
      1  0.178683D+00
      2 -0.189502D+00  0.257039D+00
      3 -0.570106D-01  0.738209D-01  0.792489D-01
      4 -0.303193D-02  0.210899D-01 -0.200177D-01  0.318352D-01
      5 -0.474434D-02 -0.226677D-01  0.250638D-01  0.177029D-01  0.230844D+00
      6  0.239945D-02 -0.111139D-01  0.716553D-02 -0.287401D-01 -0.186278D+00
      7  0.598029D-02  0.154932D-01  0.248681D-01 -0.107270D-02 -0.260709D-02
      8 -0.155877D-01 -0.156655D-01 -0.262795D-01  0.952400D-02  0.868959D-02
      9 -0.627415D-02 -0.297967D-02 -0.884610D-02 -0.169817D-01 -0.142322D-01
     10  0.717792D-04 -0.127995D-02 -0.229201D-03  0.881659D-05  0.182829D-02
     11  0.525603D-03  0.665626D-03 -0.561586D-05  0.204150D-02 -0.435444D-03
     12  0.476310D-04  0.402980D-03 -0.229192D-04  0.105744D-02  0.905545D-03
     13 -0.181701D+00  0.154208D+00  0.523900D-01 -0.277385D-01 -0.121814D-01
     14  0.209309D+00 -0.219366D+00 -0.726005D-01 -0.503601D-01 -0.216428D+00
     15  0.608395D-01 -0.601312D-01 -0.775407D-01  0.646819D-01  0.174545D+00
                6             7             8             9            10 
      6  0.255398D+00
      7  0.251148D-02  0.106311D+00
      8  0.261794D-01  0.656977D-01  0.131535D+00
      9 -0.328398D-01  0.138862D+00  0.135796D+00  0.280138D+00
     10  0.148881D-02 -0.927043D-03  0.166581D-02 -0.101118D-02  0.150443D-02
     11  0.150563D-02  0.147372D-02  0.488882D-03 -0.211290D-02  0.176417D-02
     12 -0.693364D-03 -0.576513D-03 -0.150795D-02 -0.681750D-03 -0.186456D-03
     13  0.223422D-01 -0.110289D+00 -0.613005D-01 -0.114600D+00 -0.657879D-03
     14  0.169710D+00 -0.800601D-01 -0.125047D+00 -0.116473D+00 -0.397698D-02
     15 -0.229025D+00 -0.165665D+00 -0.134190D+00 -0.237764D+00 -0.618957D-04
               11            12            13            14            15 
     11  0.317915D-02
     12  0.167060D-03 -0.446693D-03
     13 -0.580498D-02 -0.342174D-03  0.320381D+00
     14 -0.389754D-02  0.322421D-04 -0.749189D-01  0.564728D+00
     15  0.445765D-03  0.184485D-02  0.402080D-01  0.193297D-01  0.542469D+00
 Leave Link  716 at Tue Apr  9 22:07:49 2024, MaxMem=   104857600 cpu:               0.0 elap:               0.0
 (Enter /opt/g16/l123.exe)
 IRC-IRC-IRC-IRC-IRC-IRC-IRC-IRC-IRC-IRC-IRC-IRC-IRC-IRC-IRC-IRC-IRC-IRC
          ******** Start new reaction path calculation ********
 Current Structure is TS -> form Hessian eigenvectors.
                            Diagonalizing Hessian.
 Supplied step size of   0.1000 bohr.
    Integration on MW PES will use step size of   0.1007 sqrt(amu)*bohr.
 Point Number:   0          Path Number:   1
 Calculating another point on the path.
 Point Number  1 in FORWARD path direction.
 Using LQA Reaction Path Following.
 IRC-IRC-IRC-IRC-IRC-IRC-IRC-IRC-IRC-IRC-IRC-IRC-IRC-IRC-IRC-IRC-IRC-IRC
 Leave Link  123 at Tue Apr  9 22:07:49 2024, MaxMem=   104857600 cpu:               0.0 elap:               0.0
 (Enter /opt/g16/l202.exe)
                          Input orientation:                          
 ---------------------------------------------------------------------
 Center     Atomic      Atomic             Coordinates (Angstroms)
 Number     Number       Type             X           Y           Z
 ---------------------------------------------------------------------
      1          1           0        0.485192   -0.903298   -0.244991
      2          1           0       -0.058260    0.525042   -0.730050
      3          1           0        0.317282    0.334657    0.760877
      4          1           0        1.597179    2.348926    0.021881
      5          7           0       -0.168514   -0.165918    0.013839
 ---------------------------------------------------------------------
                    Distance matrix (angstroms):
                    1          2          3          4          5
     1  H    0.000000
     2  H    1.603365   0.000000
     3  H    1.603901   1.549239   0.000000
     4  H    3.447419   2.575351   2.498306   0.000000
     5  N    1.018849   1.021251   1.022076   3.072813   0.000000
 Symmetry turned off by external request.
 Stoichiometry    H4N(1-)
 Framework group  C1[X(H4N)]
 Deg. of freedom     9
 Full point group                 C1      NOp   1
 Rotational constants (GHZ):         235.1233142          48.3885946          47.1670682
 Leave Link  202 at Tue Apr  9 22:07:49 2024, MaxMem=   104857600 cpu:               0.0 elap:               0.0
 (Enter /opt/g16/l301.exe)
 Standard basis: STO-3G (5D, 7F)
 Ernie: Thresh=  0.10000D-02 Tol=  0.10000D-05 Strict=F.
     9 basis functions,    27 primitive gaussians,     9 cartesian basis functions
     6 alpha electrons        6 beta electrons
       nuclear repulsion energy        13.6649278167 Hartrees.
 IExCor=    0 DFT=F Ex=HF Corr=None ExCW=0 ScaHFX=  1.000000
 ScaDFX=  1.000000  1.000000  1.000000  1.000000 ScalE2=  1.000000  1.000000
 IRadAn=      5 IRanWt=     -1 IRanGd=            0 ICorTp=0 IEmpDi=  4
 NAtoms=    5 NActive=    5 NUniq=    5 SFac= 1.00D+00 NAtFMM=   60 NAOKFM=F Big=F
 Integral buffers will be    131072 words long.
 Raffenetti 1 integral format.
 Two-electron integral symmetry is turned off.
 Leave Link  301 at Tue Apr  9 22:07:49 2024, MaxMem=   104857600 cpu:               0.0 elap:               0.0
 (Enter /opt/g16/l402.exe)
 External calculation of energy, first and second derivatives.
 Running external command "python3 -u ../pes/h4n_anion_pes.py R"
         input file       "/home/jh-li/scratch/g16/Gau-1176974.EIn"
         output file      "/home/jh-li/scratch/g16/Gau-1176974.EOu"
         message file     "/home/jh-li/scratch/g16/Gau-1176974.EMs"
         fchk file        "/home/jh-li/scratch/g16/Gau-1176974.EFC"
         mat. el file     "/home/jh-li/scratch/g16/Gau-1176974.EUF"
 initialization done
 Recovered energy= -57.0183829164     dipole=      0.000000000000      0.000000000000      0.000000000000
 Energy=    -57.0183829     NIter=   0.
 Dipole moment=       0.000000       0.000000       0.000000
 Leave Link  402 at Tue Apr  9 22:07:49 2024, MaxMem=   104857600 cpu:               0.0 elap:               0.3
 (Enter /opt/g16/l716.exe)
 Dipole        = 0.00000000D+00 0.00000000D+00 0.00000000D+00
 -------------------------------------------------------------------
 Center     Atomic                   Forces (Hartrees/Bohr)
 Number     Number              X              Y              Z
 -------------------------------------------------------------------
      1        1          -0.000034193   -0.000002219    0.000038593
      2        1          -0.000168164   -0.000374813    0.000248873
      3        1          -0.000145978   -0.000082657   -0.000468790
      4        1           0.000017770   -0.000021675    0.000121737
      5        7           0.000330081    0.000481242    0.000060684
 -------------------------------------------------------------------
 Cartesian Forces:  Max     0.000481242 RMS     0.000236799
 Force constants in Cartesian coordinates: 
                1             2             3             4             5 
      1  0.179285D+00
      2 -0.189797D+00  0.257224D+00
      3 -0.556637D-01  0.734221D-01  0.784122D-01
      4 -0.354296D-02  0.204666D-01 -0.204843D-01  0.303236D-01
      5 -0.396529D-02 -0.222568D-01  0.257789D-01  0.112474D-01  0.222554D+00
      6  0.283714D-02 -0.108230D-01  0.714873D-02 -0.222172D-01 -0.186088D+00
      7  0.638931D-02  0.162245D-01  0.243979D-01 -0.147831D-02 -0.295697D-02
      8 -0.160734D-01 -0.162796D-01 -0.254269D-01  0.963857D-02  0.895406D-02
      9 -0.615530D-02 -0.322260D-02 -0.851341D-02 -0.177422D-01 -0.151546D-01
     10  0.632871D-04 -0.127418D-02 -0.256948D-03  0.620445D-04  0.171314D-02
     11  0.525374D-03  0.660487D-03 -0.118497D-04  0.195735D-02 -0.412563D-03
     12  0.453964D-04  0.423626D-03 -0.128210D-04  0.106382D-02  0.834028D-03
     13 -0.182193D+00  0.154390D+00  0.520074D-01 -0.253637D-01 -0.603995D-02
     14  0.209312D+00 -0.219343D+00 -0.737631D-01 -0.433116D-01 -0.208837D+00
     15  0.589387D-01 -0.598010D-01 -0.770303D-01  0.593800D-01  0.174634D+00
                6             7             8             9            10 
      6  0.264741D+00
      7  0.167497D-02  0.111318D+00
      8  0.250805D-01  0.709088D-01  0.138448D+00
      9 -0.326644D-01  0.138708D+00  0.137164D+00  0.266050D+00
     10  0.149862D-02 -0.991734D-03  0.176926D-02 -0.103287D-02  0.153499D-02
     11  0.144794D-02  0.155792D-02  0.512123D-03 -0.211768D-02  0.177481D-02
     12 -0.481418D-03 -0.629970D-03 -0.156850D-02 -0.923401D-03 -0.125857D-03
     13  0.162083D-01 -0.115235D+00 -0.662442D-01 -0.113782D+00 -0.668510D-03
     14  0.170386D+00 -0.857369D-01 -0.131633D+00 -0.116670D+00 -0.398170D-02
     15 -0.238739D+00 -0.164150D+00 -0.135251D+00 -0.223943D+00 -0.828718D-04
               11            12            13            14            15 
     11  0.315097D-02
     12  0.262095D-03 -0.438262D-03
     13 -0.581544D-02 -0.353486D-03  0.323455D+00
     14 -0.391034D-02  0.486201D-04 -0.762880D-01  0.563714D+00
     15  0.419450D-03  0.185602D-02  0.459170D-01  0.199976D-01  0.537840D+00
 Leave Link  716 at Tue Apr  9 22:07:49 2024, MaxMem=   104857600 cpu:               0.0 elap:               0.0
 (Enter /opt/g16/l123.exe)
 IRC-IRC-IRC-IRC-IRC-IRC-IRC-IRC-IRC-IRC-IRC-IRC-IRC-IRC-IRC-IRC-IRC-IRC
 Pt  1 Step number   1 out of a maximum of  20
 Point Number:   1          Path Number:   1
                    CURRENT STRUCTURE
                Cartesian Coordinates (Ang):                
 ---------------------------------------------------------------------
 Center     Atomic                     Coordinates (Angstroms)
 Number     Number                        X           Y           Z
 ---------------------------------------------------------------------
      1          1                    0.485192   -0.903298   -0.244991
      2          1                   -0.058260    0.525042   -0.730050
      3          1                    0.317282    0.334657    0.760877
      4          1                    1.597179    2.348926    0.021881
      5          7                   -0.168514   -0.165918    0.013839
 ---------------------------------------------------------------------
   CHANGE IN THE REACTION COORDINATE =    0.10067
   NET REACTION COORDINATE UP TO THIS POINT =    0.10067
  # OF POINTS ALONG THE PATH =   1
  # OF STEPS =   1

 Calculating another point on the path.
 Point Number  2 in FORWARD path direction.
 Using LQA Reaction Path Following.
   LQA: T_Est iteration completed in    4 iterations.
 IRC-IRC-IRC-IRC-IRC-IRC-IRC-IRC-IRC-IRC-IRC-IRC-IRC-IRC-IRC-IRC-IRC-IRC
 Leave Link  123 at Tue Apr  9 22:07:49 2024, MaxMem=   104857600 cpu:               0.0 elap:               0.0
 (Enter /opt/g16/l202.exe)
                          Input orientation:                          
 ---------------------------------------------------------------------
 Center     Atomic      Atomic             Coordinates (Angstroms)
 Number     Number       Type             X           Y           Z
 ---------------------------------------------------------------------
      1          1           0        0.484717   -0.904908   -0.241076
      2          1           0       -0.080635    0.507522   -0.747525
      3          1           0        0.330634    0.356169    0.738929
      4          1           0        1.600832    2.344996    0.043798
      5          7           0       -0.168098   -0.165808    0.014827
 ---------------------------------------------------------------------
                    Distance matrix (angstroms):
                    1          2          3          4          5
     1  H    0.000000
     2  H    1.603456   0.000000
     3  H    1.604514   1.549709   0.000000
     4  H    3.448004   2.613395   2.460090   0.000000
     5  N    1.018785   1.020884   1.022505   3.071496   0.000000
 Symmetry turned off by external request.
 Stoichiometry    H4N(1-)
 Framework group  C1[X(H4N)]
 Deg. of freedom     9
 Full point group                 C1      NOp   1
 Rotational constants (GHZ):         235.4830216          48.4238084          47.1671967
 Leave Link  202 at Tue Apr  9 22:07:49 2024, MaxMem=   104857600 cpu:               0.0 elap:               0.0
 (Enter /opt/g16/l301.exe)
 Standard basis: STO-3G (5D, 7F)
 Ernie: Thresh=  0.10000D-02 Tol=  0.10000D-05 Strict=F.
     9 basis functions,    27 primitive gaussians,     9 cartesian basis functions
     6 alpha electrons        6 beta electrons
       nuclear repulsion energy        13.6654814539 Hartrees.
 IExCor=    0 DFT=F Ex=HF Corr=None ExCW=0 ScaHFX=  1.000000
 ScaDFX=  1.000000  1.000000  1.000000  1.000000 ScalE2=  1.000000  1.000000
 IRadAn=      5 IRanWt=     -1 IRanGd=            0 ICorTp=0 IEmpDi=  4
 NAtoms=    5 NActive=    5 NUniq=    5 SFac= 1.00D+00 NAtFMM=   60 NAOKFM=F Big=F
 Integral buffers will be    131072 words long.
 Raffenetti 1 integral format.
 Two-electron integral symmetry is turned off.
 Leave Link  301 at Tue Apr  9 22:07:49 2024, MaxMem=   104857600 cpu:               0.0 elap:               0.0
 (Enter /opt/g16/l402.exe)
 External calculation of energy, first and second derivatives.
 Running external command "python3 -u ../pes/h4n_anion_pes.py R"
         input file       "/home/jh-li/scratch/g16/Gau-1176974.EIn"
         output file      "/home/jh-li/scratch/g16/Gau-1176974.EOu"
         message file     "/home/jh-li/scratch/g16/Gau-1176974.EMs"
         fchk file        "/home/jh-li/scratch/g16/Gau-1176974.EFC"
         mat. el file     "/home/jh-li/scratch/g16/Gau-1176974.EUF"
 initialization done
 Recovered energy= -57.0184266371     dipole=      0.000000000000      0.000000000000      0.000000000000
 Energy=    -57.0184266     NIter=   0.
 Dipole moment=       0.000000       0.000000       0.000000
 Leave Link  402 at Tue Apr  9 22:07:50 2024, MaxMem=   104857600 cpu:               0.0 elap:               0.3
 (Enter /opt/g16/l716.exe)
 Dipole        = 0.00000000D+00 0.00000000D+00 0.00000000D+00
 -------------------------------------------------------------------
 Center     Atomic                   Forces (Hartrees/Bohr)
 Number     Number              X              Y              Z
 -------------------------------------------------------------------
      1        1           0.000014882   -0.000011549    0.000043100
      2        1          -0.000269648   -0.000462851    0.000154460
      3        1          -0.000052388    0.000035208   -0.000568663
      4        1           0.000040549   -0.000051092    0.000237718
      5        7           0.000265964    0.000490257    0.000135092
 -------------------------------------------------------------------
 Cartesian Forces:  Max     0.000568663 RMS     0.000262104
 Force constants in Cartesian coordinates: 
                1             2             3             4             5 
      1  0.179383D+00
      2 -0.190131D+00  0.258253D+00
      3 -0.540404D-01  0.729125D-01  0.773824D-01
      4 -0.402961D-02  0.198017D-01 -0.209251D-01  0.290527D-01
      5 -0.320892D-02 -0.218185D-01  0.265002D-01  0.534842D-02  0.214475D+00
      6  0.323887D-02 -0.105243D-01  0.711738D-02 -0.156877D-01 -0.186003D+00
      7  0.678311D-02  0.169340D-01  0.238982D-01 -0.189021D-02 -0.332997D-02
      8 -0.165448D-01 -0.168802D-01 -0.245892D-01  0.970852D-02  0.919237D-02
      9 -0.599173D-02 -0.341121D-02 -0.814329D-02 -0.185025D-01 -0.161040D-01
     10  0.528968D-04 -0.127617D-02 -0.284418D-03  0.108614D-03  0.161398D-02
     11  0.524580D-03  0.647410D-03 -0.189093D-04  0.187664D-02 -0.380104D-03
     12  0.434528D-04  0.442744D-03 -0.365415D-05  0.107117D-02  0.770752D-03
     13 -0.182187D+00  0.154681D+00  0.513518D-01 -0.232410D-01 -0.425138D-03
     14  0.209362D+00 -0.220196D+00 -0.748053D-01 -0.367368D-01 -0.201467D+00
     15  0.567524D-01 -0.594205D-01 -0.763487D-01  0.540444D-01  0.174841D+00
                6             7             8             9            10 
      6  0.274730D+00
      7  0.936190D-03  0.116213D+00
      8  0.239999D-01  0.763646D-01  0.145585D+00
      9 -0.324446D-01  0.138573D+00  0.138446D+00  0.252995D+00
     10  0.149551D-02 -0.105354D-02  0.188455D-02 -0.104272D-02  0.157427D-02
     11  0.138176D-02  0.165494D-02  0.544406D-03 -0.210621D-02  0.178780D-02
     12 -0.282380D-03 -0.686276D-03 -0.162998D-02 -0.117651D-02 -0.638766D-04
     13  0.100189D-01 -0.120050D+00 -0.714140D-01 -0.113041D+00 -0.682182D-03
     14  0.171149D+00 -0.916263D-01 -0.138440D+00 -0.116826D+00 -0.400880D-02
     15 -0.249116D+00 -0.162720D+00 -0.136228D+00 -0.211225D+00 -0.104419D-03
               11            12            13            14            15 
     11  0.313523D-02
     12  0.354443D-03 -0.414869D-03
     13 -0.584393D-02 -0.364599D-03  0.326156D+00
     14 -0.394625D-02  0.618978D-04 -0.769961D-01  0.564039D+00
     15  0.388878D-03  0.187753D-02  0.520307D-01  0.204178D-01  0.534797D+00
 Leave Link  716 at Tue Apr  9 22:07:50 2024, MaxMem=   104857600 cpu:               0.0 elap:               0.0
 (Enter /opt/g16/l123.exe)
 IRC-IRC-IRC-IRC-IRC-IRC-IRC-IRC-IRC-IRC-IRC-IRC-IRC-IRC-IRC-IRC-IRC-IRC
 Pt  2 Step number   1 out of a maximum of  20
 Point Number:   2          Path Number:   1
                    CURRENT STRUCTURE
                Cartesian Coordinates (Ang):                
 ---------------------------------------------------------------------
 Center     Atomic                     Coordinates (Angstroms)
 Number     Number                        X           Y           Z
 ---------------------------------------------------------------------
      1          1                    0.484717   -0.904908   -0.241076
      2          1                   -0.080635    0.507522   -0.747525
      3          1                    0.330634    0.356169    0.738929
      4          1                    1.600832    2.344996    0.043798
      5          7                   -0.168098   -0.165808    0.014827
 ---------------------------------------------------------------------
   CHANGE IN THE REACTION COORDINATE =    0.10001
   NET REACTION COORDINATE UP TO THIS POINT =    0.20068
  # OF POINTS ALONG THE PATH =   2
  # OF STEPS =   1

 Calculating another point on the path.
 Point Number  3 in FORWARD path direction.
 Using LQA Reaction Path Following.
   LQA: T_Est iteration completed in    4 iterations.
 IRC-IRC-IRC-IRC-IRC-IRC-IRC-IRC-IRC-IRC-IRC-IRC-IRC-IRC-IRC-IRC-IRC-IRC
 Leave Link  123 at Tue Apr  9 22:07:50 2024, MaxMem=   104857600 cpu:               0.0 elap:               0.0
 (Enter /opt/g16/l202.exe)
                          Input orientation:                          
 ---------------------------------------------------------------------
 Center     Atomic      Atomic             Coordinates (Angstroms)
 Number     Number       Type             X           Y           Z
 ---------------------------------------------------------------------
      1          1           0        0.485143   -0.905686   -0.237414
      2          1           0       -0.103766    0.489592   -0.764054
      3          1           0        0.343345    0.377468    0.716235
      4          1           0        1.604538    2.340078    0.065407
      5          7           0       -0.167649   -0.165641    0.015841
 ---------------------------------------------------------------------
                    Distance matrix (angstroms):
                    1          2          3          4          5
     1  H    0.000000
     2  H    1.603423   0.000000
     3  H    1.605004   1.550398   0.000000
     4  H    3.446699   2.651529   2.421987   0.000000
     5  N    1.018795   1.020611   1.023051   3.069483   0.000000
 Symmetry turned off by external request.
 Stoichiometry    H4N(1-)
 Framework group  C1[X(H4N)]
 Deg. of freedom     9
 Full point group                 C1      NOp   1
 Rotational constants (GHZ):         235.8606481          48.4794617          47.1758503
 Leave Link  202 at Tue Apr  9 22:07:50 2024, MaxMem=   104857600 cpu:               0.0 elap:               0.0
 (Enter /opt/g16/l301.exe)
 Standard basis: STO-3G (5D, 7F)
 Ernie: Thresh=  0.10000D-02 Tol=  0.10000D-05 Strict=F.
     9 basis functions,    27 primitive gaussians,     9 cartesian basis functions
     6 alpha electrons        6 beta electrons
       nuclear repulsion energy        13.6655599961 Hartrees.
 IExCor=    0 DFT=F Ex=HF Corr=None ExCW=0 ScaHFX=  1.000000
 ScaDFX=  1.000000  1.000000  1.000000  1.000000 ScalE2=  1.000000  1.000000
 IRadAn=      5 IRanWt=     -1 IRanGd=            0 ICorTp=0 IEmpDi=  4
 NAtoms=    5 NActive=    5 NUniq=    5 SFac= 1.00D+00 NAtFMM=   60 NAOKFM=F Big=F
 Integral buffers will be    131072 words long.
 Raffenetti 1 integral format.
 Two-electron integral symmetry is turned off.
 Leave Link  301 at Tue Apr  9 22:07:50 2024, MaxMem=   104857600 cpu:               0.1 elap:               0.0
 (Enter /opt/g16/l402.exe)
 External calculation of energy, first and second derivatives.
 Running external command "python3 -u ../pes/h4n_anion_pes.py R"
         input file       "/home/jh-li/scratch/g16/Gau-1176974.EIn"
         output file      "/home/jh-li/scratch/g16/Gau-1176974.EOu"
         message file     "/home/jh-li/scratch/g16/Gau-1176974.EMs"
         fchk file        "/home/jh-li/scratch/g16/Gau-1176974.EFC"
         mat. el file     "/home/jh-li/scratch/g16/Gau-1176974.EUF"
 initialization done
 Recovered energy= -57.0184986217     dipole=      0.000000000000      0.000000000000      0.000000000000
 Energy=    -57.0184986     NIter=   0.
 Dipole moment=       0.000000       0.000000       0.000000
 Leave Link  402 at Tue Apr  9 22:07:50 2024, MaxMem=   104857600 cpu:               0.0 elap:               0.3
 (Enter /opt/g16/l716.exe)
 Dipole        = 0.00000000D+00 0.00000000D+00 0.00000000D+00
 -------------------------------------------------------------------
 Center     Atomic                   Forces (Hartrees/Bohr)
 Number     Number              X              Y              Z
 -------------------------------------------------------------------
      1        1           0.000022680   -0.000011597    0.000057558
      2        1          -0.000388145   -0.000560584    0.000089696
      3        1           0.000001348    0.000139252   -0.000683434
      4        1           0.000057971   -0.000088193    0.000349404
      5        7           0.000305328    0.000521171    0.000189075
 -------------------------------------------------------------------
 Cartesian Forces:  Max     0.000683434 RMS     0.000315933
 Force constants in Cartesian coordinates: 
                1             2             3             4             5 
      1  0.179862D+00
      2 -0.190396D+00  0.258731D+00
      3 -0.525430D-01  0.723625D-01  0.763628D-01
      4 -0.453286D-02  0.191515D-01 -0.213572D-01  0.282042D-01
      5 -0.240419D-02 -0.213562D-01  0.271717D-01 -0.530999D-03  0.206198D+00
      6  0.363875D-02 -0.102108D-01  0.705994D-02 -0.855509D-02 -0.185156D+00
      7  0.717031D-02  0.176490D-01  0.233842D-01 -0.234464D-02 -0.375422D-02
      8 -0.169605D-01 -0.174652D-01 -0.237112D-01  0.973928D-02  0.938765D-02
      9 -0.582363D-02 -0.362015D-02 -0.780321D-02 -0.192277D-01 -0.170590D-01
     10  0.434757D-04 -0.128127D-02 -0.313219D-03  0.156238D-03  0.152841D-02
     11  0.525955D-03  0.636433D-03 -0.249707D-04  0.179803D-02 -0.340330D-03
     12  0.407988D-04  0.462859D-03  0.157205D-05  0.108232D-02  0.713603D-03
     13 -0.182542D+00  0.154885D+00  0.508291D-01 -0.214825D-01  0.515940D-02
     14  0.209235D+00 -0.220541D+00 -0.757987D-01 -0.301592D-01 -0.193887D+00
     15  0.546901D-01 -0.589951D-01 -0.756173D-01  0.480583D-01  0.174335D+00
                6             7             8             9            10 
      6  0.284244D+00
      7  0.216668D-03  0.120899D+00
      8  0.229221D-01  0.816583D-01  0.152756D+00
      9 -0.321246D-01  0.137718D+00  0.139002D+00  0.239795D+00
     10  0.148212D-02 -0.111049D-02  0.201438D-02 -0.104285D-02  0.162103D-02
     11  0.130099D-02  0.176838D-02  0.586852D-03 -0.207595D-02  0.180139D-02
     12 -0.959678D-04 -0.747031D-03 -0.169209D-02 -0.143959D-02 -0.159058D-05
     13  0.321938D-02 -0.124613D+00 -0.764528D-01 -0.111629D+00 -0.710221D-03
     14  0.171147D+00 -0.973242D-01 -0.145263D+00 -0.116248D+00 -0.406153D-02
     15 -0.259079D+00 -0.160570D+00 -0.136522D+00 -0.198421D+00 -0.124381D-03
               11            12            13            14            15 
     11  0.312533D-02
     12  0.443609D-03 -0.376614D-03
     13 -0.589371D-02 -0.374647D-03  0.329343D+00
     14 -0.400758D-02  0.718722D-04 -0.776964D-01  0.563689D+00
     15  0.356285D-03  0.191071D-02  0.579501D-01  0.208250D-01  0.531193D+00
 Leave Link  716 at Tue Apr  9 22:07:50 2024, MaxMem=   104857600 cpu:               0.0 elap:               0.0
 (Enter /opt/g16/l123.exe)
 IRC-IRC-IRC-IRC-IRC-IRC-IRC-IRC-IRC-IRC-IRC-IRC-IRC-IRC-IRC-IRC-IRC-IRC
 Pt  3 Step number   1 out of a maximum of  20
 Point Number:   3          Path Number:   1
                    CURRENT STRUCTURE
                Cartesian Coordinates (Ang):                
 ---------------------------------------------------------------------
 Center     Atomic                     Coordinates (Angstroms)
 Number     Number                        X           Y           Z
 ---------------------------------------------------------------------
      1          1                    0.485143   -0.905686   -0.237414
      2          1                   -0.103766    0.489592   -0.764054
      3          1                    0.343345    0.377468    0.716235
      4          1                    1.604538    2.340078    0.065407
      5          7                   -0.167649   -0.165641    0.015841
 ---------------------------------------------------------------------
   CHANGE IN THE REACTION COORDINATE =    0.10032
   NET REACTION COORDINATE UP TO THIS POINT =    0.30100
  # OF POINTS ALONG THE PATH =   3
  # OF STEPS =   1

 Calculating another point on the path.
 Point Number  4 in FORWARD path direction.
 Using LQA Reaction Path Following.
   LQA: T_Est iteration completed in    4 iterations.
 IRC-IRC-IRC-IRC-IRC-IRC-IRC-IRC-IRC-IRC-IRC-IRC-IRC-IRC-IRC-IRC-IRC-IRC
 Leave Link  123 at Tue Apr  9 22:07:50 2024, MaxMem=   104857600 cpu:               0.0 elap:               0.0
 (Enter /opt/g16/l202.exe)
                          Input orientation:                          
 ---------------------------------------------------------------------
 Center     Atomic      Atomic             Coordinates (Angstroms)
 Number     Number       Type             X           Y           Z
 ---------------------------------------------------------------------
      1          1           0        0.485833   -0.906182   -0.233818
      2          1           0       -0.127330    0.471154   -0.779659
      3          1           0        0.355335    0.398401    0.692913
      4          1           0        1.608018    2.334379    0.086857
      5          7           0       -0.167119   -0.165374    0.016849
 ---------------------------------------------------------------------
                    Distance matrix (angstroms):
                    1          2          3          4          5
     1  H    0.000000
     2  H    1.603424   0.000000
     3  H    1.605553   1.551363   0.000000
     4  H    3.444325   2.689589   2.384225   0.000000
     5  N    1.018812   1.020381   1.023653   3.066721   0.000000
 Symmetry turned off by external request.
 Stoichiometry    H4N(1-)
 Framework group  C1[X(H4N)]
 Deg. of freedom     9
 Full point group                 C1      NOp   1
 Rotational constants (GHZ):         236.3311261          48.5558460          47.1911131
 Leave Link  202 at Tue Apr  9 22:07:50 2024, MaxMem=   104857600 cpu:               0.0 elap:               0.0
 (Enter /opt/g16/l301.exe)
 Standard basis: STO-3G (5D, 7F)
 Ernie: Thresh=  0.10000D-02 Tol=  0.10000D-05 Strict=F.
     9 basis functions,    27 primitive gaussians,     9 cartesian basis functions
     6 alpha electrons        6 beta electrons
       nuclear repulsion energy        13.6656938762 Hartrees.
 IExCor=    0 DFT=F Ex=HF Corr=None ExCW=0 ScaHFX=  1.000000
 ScaDFX=  1.000000  1.000000  1.000000  1.000000 ScalE2=  1.000000  1.000000
 IRadAn=      5 IRanWt=     -1 IRanGd=            0 ICorTp=0 IEmpDi=  4
 NAtoms=    5 NActive=    5 NUniq=    5 SFac= 1.00D+00 NAtFMM=   60 NAOKFM=F Big=F
 Integral buffers will be    131072 words long.
 Raffenetti 1 integral format.
 Two-electron integral symmetry is turned off.
 Leave Link  301 at Tue Apr  9 22:07:50 2024, MaxMem=   104857600 cpu:               0.1 elap:               0.1
 (Enter /opt/g16/l402.exe)
 External calculation of energy, first and second derivatives.
 Running external command "python3 -u ../pes/h4n_anion_pes.py R"
         input file       "/home/jh-li/scratch/g16/Gau-1176974.EIn"
         output file      "/home/jh-li/scratch/g16/Gau-1176974.EOu"
         message file     "/home/jh-li/scratch/g16/Gau-1176974.EMs"
         fchk file        "/home/jh-li/scratch/g16/Gau-1176974.EFC"
         mat. el file     "/home/jh-li/scratch/g16/Gau-1176974.EUF"
 initialization done
 Recovered energy= -57.0185977009     dipole=      0.000000000000      0.000000000000      0.000000000000
 Energy=    -57.0185977     NIter=   0.
 Dipole moment=       0.000000       0.000000       0.000000
 Leave Link  402 at Tue Apr  9 22:07:51 2024, MaxMem=   104857600 cpu:               0.0 elap:               0.3
 (Enter /opt/g16/l716.exe)
 Dipole        = 0.00000000D+00 0.00000000D+00 0.00000000D+00
 -------------------------------------------------------------------
 Center     Atomic                   Forces (Hartrees/Bohr)
 Number     Number              X              Y              Z
 -------------------------------------------------------------------
      1        1           0.000030066   -0.000009917    0.000074112
      2        1          -0.000501577   -0.000656465    0.000036664
      3        1           0.000048953    0.000234203   -0.000793572
      4        1           0.000070271   -0.000130654    0.000454308
      5        7           0.000351291    0.000562948    0.000231352
 -------------------------------------------------------------------
 Cartesian Forces:  Max     0.000793572 RMS     0.000374131
 Force constants in Cartesian coordinates: 
                1             2             3             4             5 
      1  0.180466D+00
      2 -0.190646D+00  0.259086D+00
      3 -0.510962D-01  0.718066D-01  0.753165D-01
      4 -0.504303D-02  0.184944D-01 -0.217712D-01  0.277924D-01
      5 -0.157500D-02 -0.208613D-01  0.278009D-01 -0.625577D-02  0.197769D+00
      6  0.402639D-02 -0.988840D-02  0.698089D-02 -0.945251D-03 -0.183601D+00
      7  0.754800D-02  0.183531D-01  0.228466D-01 -0.283086D-02 -0.422035D-02
      8 -0.173347D-01 -0.180251D-01 -0.228013D-01  0.973228D-02  0.954102D-02
      9 -0.564441D-02 -0.382569D-02 -0.747634D-02 -0.199142D-01 -0.180121D-01
     10  0.338274D-04 -0.129081D-02 -0.342430D-03  0.202383D-03  0.145600D-02
     11  0.528596D-03  0.624580D-03 -0.302122D-04  0.171987D-02 -0.294728D-03
     12  0.380147D-04  0.482677D-03  0.409423D-05  0.109715D-02  0.665141D-03
     13 -0.183003D+00  0.155098D+00  0.503629D-01 -0.201206D-01  0.105935D-01
     14  0.209028D+00 -0.220819D+00 -0.767765D-01 -0.236921D-01 -0.186152D+00
     15  0.526796D-01 -0.585758D-01 -0.748216D-01  0.415341D-01  0.173153D+00
                6             7             8             9            10 
      6  0.293329D+00
      7 -0.456529D-03  0.125323D+00
      8  0.218497D-01  0.867657D-01  0.159904D+00
      9 -0.317039D-01  0.136243D+00  0.138871D+00  0.226676D+00
     10  0.145769D-02 -0.116136D-02  0.215979D-02 -0.103157D-02  0.167442D-02
     11  0.120756D-02  0.189874D-02  0.640571D-03 -0.202644D-02  0.181552D-02
     12  0.774689D-04 -0.810281D-03 -0.175287D-02 -0.171166D-02  0.604097D-04
     13 -0.408044D-02 -0.128878D+00 -0.813246D-01 -0.109658D+00 -0.749256D-03
     14  0.170435D+00 -0.102800D+00 -0.152059D+00 -0.115008D+00 -0.413908D-02
     15 -0.268680D+00 -0.157821D+00 -0.136167D+00 -0.185779D+00 -0.144024D-03
               11            12            13            14            15 
     11  0.312307D-02
     12  0.528716D-03 -0.324164D-03
     13 -0.596267D-02 -0.385469D-03  0.332747D+00
     14 -0.409276D-02  0.761914D-04 -0.784029D-01  0.563112D+00
     15  0.320342D-03  0.195438D-02  0.637547D-01  0.212685D-01  0.527313D+00
 Leave Link  716 at Tue Apr  9 22:07:51 2024, MaxMem=   104857600 cpu:               0.0 elap:               0.0
 (Enter /opt/g16/l123.exe)
 IRC-IRC-IRC-IRC-IRC-IRC-IRC-IRC-IRC-IRC-IRC-IRC-IRC-IRC-IRC-IRC-IRC-IRC
 Pt  4 Step number   1 out of a maximum of  20
 Point Number:   4          Path Number:   1
                    CURRENT STRUCTURE
                Cartesian Coordinates (Ang):                
 ---------------------------------------------------------------------
 Center     Atomic                     Coordinates (Angstroms)
 Number     Number                        X           Y           Z
 ---------------------------------------------------------------------
      1          1                    0.485833   -0.906182   -0.233818
      2          1                   -0.127330    0.471154   -0.779659
      3          1                    0.355335    0.398401    0.692913
      4          1                    1.608018    2.334379    0.086857
      5          7                   -0.167119   -0.165374    0.016849
 ---------------------------------------------------------------------
   CHANGE IN THE REACTION COORDINATE =    0.10042
   NET REACTION COORDINATE UP TO THIS POINT =    0.40143
  # OF POINTS ALONG THE PATH =   4
  # OF STEPS =   1

 Calculating another point on the path.
 Point Number  5 in FORWARD path direction.
 Using LQA Reaction Path Following.
   LQA: T_Est iteration completed in    2 iterations.
 IRC-IRC-IRC-IRC-IRC-IRC-IRC-IRC-IRC-IRC-IRC-IRC-IRC-IRC-IRC-IRC-IRC-IRC
 Leave Link  123 at Tue Apr  9 22:07:51 2024, MaxMem=   104857600 cpu:               0.0 elap:               0.0
 (Enter /opt/g16/l202.exe)
                          Input orientation:                          
 ---------------------------------------------------------------------
 Center     Atomic      Atomic             Coordinates (Angstroms)
 Number     Number       Type             X           Y           Z
 ---------------------------------------------------------------------
      1          1           0        0.486698   -0.906490   -0.230223
      2          1           0       -0.151191    0.452191   -0.794336
      3          1           0        0.366621    0.418923    0.669015
      4          1           0        1.611207    2.327942    0.108188
      5          7           0       -0.166509   -0.165001    0.017840
 ---------------------------------------------------------------------
                    Distance matrix (angstroms):
                    1          2          3          4          5
     1  H    0.000000
     2  H    1.603478   0.000000
     3  H    1.606165   1.552621   0.000000
     4  H    3.441017   2.727460   2.346886   0.000000
     5  N    1.018833   1.020191   1.024316   3.063201   0.000000
 Symmetry turned off by external request.
 Stoichiometry    H4N(1-)
 Framework group  C1[X(H4N)]
 Deg. of freedom     9
 Full point group                 C1      NOp   1
 Rotational constants (GHZ):         236.9076171          48.6522603          47.2132967
 Leave Link  202 at Tue Apr  9 22:07:51 2024, MaxMem=   104857600 cpu:               0.0 elap:               0.0
 (Enter /opt/g16/l301.exe)
 Standard basis: STO-3G (5D, 7F)
 Ernie: Thresh=  0.10000D-02 Tol=  0.10000D-05 Strict=F.
     9 basis functions,    27 primitive gaussians,     9 cartesian basis functions
     6 alpha electrons        6 beta electrons
       nuclear repulsion energy        13.6658696395 Hartrees.
 IExCor=    0 DFT=F Ex=HF Corr=None ExCW=0 ScaHFX=  1.000000
 ScaDFX=  1.000000  1.000000  1.000000  1.000000 ScalE2=  1.000000  1.000000
 IRadAn=      5 IRanWt=     -1 IRanGd=            0 ICorTp=0 IEmpDi=  4
 NAtoms=    5 NActive=    5 NUniq=    5 SFac= 1.00D+00 NAtFMM=   60 NAOKFM=F Big=F
 Integral buffers will be    131072 words long.
 Raffenetti 1 integral format.
 Two-electron integral symmetry is turned off.
 Leave Link  301 at Tue Apr  9 22:07:51 2024, MaxMem=   104857600 cpu:               0.0 elap:               0.1
 (Enter /opt/g16/l402.exe)
 External calculation of energy, first and second derivatives.
 Running external command "python3 -u ../pes/h4n_anion_pes.py R"
         input file       "/home/jh-li/scratch/g16/Gau-1176974.EIn"
         output file      "/home/jh-li/scratch/g16/Gau-1176974.EOu"
         message file     "/home/jh-li/scratch/g16/Gau-1176974.EMs"
         fchk file        "/home/jh-li/scratch/g16/Gau-1176974.EFC"
         mat. el file     "/home/jh-li/scratch/g16/Gau-1176974.EUF"
 initialization done
 Recovered energy= -57.0187220914     dipole=      0.000000000000      0.000000000000      0.000000000000
 Energy=    -57.0187221     NIter=   0.
 Dipole moment=       0.000000       0.000000       0.000000
 Leave Link  402 at Tue Apr  9 22:07:51 2024, MaxMem=   104857600 cpu:               0.0 elap:               0.3
 (Enter /opt/g16/l716.exe)
 Dipole        = 0.00000000D+00 0.00000000D+00 0.00000000D+00
 -------------------------------------------------------------------
 Center     Atomic                   Forces (Hartrees/Bohr)
 Number     Number              X              Y              Z
 -------------------------------------------------------------------
      1        1           0.000037726   -0.000007051    0.000090481
      2        1          -0.000606879   -0.000749284   -0.000002608
      3        1           0.000086068    0.000316943   -0.000898906
      4        1           0.000077740   -0.000177504    0.000550141
      5        7           0.000404170    0.000617068    0.000264293
 -------------------------------------------------------------------
 Cartesian Forces:  Max     0.000898906 RMS     0.000432779
 Force constants in Cartesian coordinates: 
                1             2             3             4             5 
      1  0.181147D+00
      2 -0.190882D+00  0.259380D+00
      3 -0.496774D-01  0.712341D-01  0.742315D-01
      4 -0.555741D-02  0.178275D-01 -0.221652D-01  0.278445D-01
      5 -0.728263D-03 -0.203337D-01  0.283885D-01 -0.117548D-01  0.189218D+00
      6  0.439916D-02 -0.955809D-02  0.688003D-02  0.707297D-02 -0.181344D+00
      7  0.791407D-02  0.190429D-01  0.222823D-01 -0.334283D-02 -0.472349D-02
      8 -0.176679D-01 -0.185605D-01 -0.218657D-01  0.968894D-02  0.965281D-02
      9 -0.545452D-02 -0.402524D-02 -0.716051D-02 -0.205563D-01 -0.189564D-01
     10  0.240006D-04 -0.130512D-02 -0.371684D-03  0.245877D-03  0.139557D-02
     11  0.532490D-03  0.611514D-03 -0.344794D-04  0.164085D-02 -0.245248D-03
     12  0.352112D-04  0.501502D-03  0.416062D-05  0.111564D-02  0.626712D-03
     13 -0.183526D+00  0.155325D+00  0.499315D-01 -0.191900D-01  0.158094D-01
     14  0.208747D+00 -0.221092D+00 -0.777228D-01 -0.174038D-01 -0.178290D+00
     15  0.507013D-01 -0.581529D-01 -0.739520D-01  0.345335D-01  0.171291D+00
                6             7             8             9            10 
      6  0.301935D+00
      7 -0.107291D-02  0.129455D+00
      8  0.207863D-01  0.916434D-01  0.166971D+00
      9 -0.311855D-01  0.134174D+00  0.138046D+00  0.213710D+00
     10  0.142225D-02 -0.120503D-02  0.232183D-02 -0.100815D-02  0.173419D-02
     11  0.110264D-02  0.204699D-02  0.706272D-03 -0.195735D-02  0.183027D-02
     12  0.237611D-03 -0.874173D-03 -0.181001D-02 -0.199161D-02  0.121413D-03
     13 -0.118196D-01 -0.132819D+00 -0.859880D-01 -0.107160D+00 -0.799041D-03
     14  0.169016D+00 -0.108013D+00 -0.158768D+00 -0.113108D+00 -0.424111D-02
     15 -0.277865D+00 -0.154506D+00 -0.135157D+00 -0.173367D+00 -0.163763D-03
               11            12            13            14            15 
     11  0.312897D-02
     12  0.608896D-03 -0.257963D-03
     13 -0.605052D-02 -0.398280D-03  0.336332D+00
     14 -0.420077D-02  0.727536D-04 -0.790947D-01  0.562340D+00
     15  0.280254D-03  0.200791D-02  0.694391D-01  0.217369D-01  0.523164D+00
 Leave Link  716 at Tue Apr  9 22:07:51 2024, MaxMem=   104857600 cpu:               0.0 elap:               0.0
 (Enter /opt/g16/l123.exe)
 IRC-IRC-IRC-IRC-IRC-IRC-IRC-IRC-IRC-IRC-IRC-IRC-IRC-IRC-IRC-IRC-IRC-IRC
 Pt  5 Step number   1 out of a maximum of  20
 Point Number:   5          Path Number:   1
                    CURRENT STRUCTURE
                Cartesian Coordinates (Ang):                
 ---------------------------------------------------------------------
 Center     Atomic                     Coordinates (Angstroms)
 Number     Number                        X           Y           Z
 ---------------------------------------------------------------------
      1          1                    0.486698   -0.906490   -0.230223
      2          1                   -0.151191    0.452191   -0.794336
      3          1                    0.366621    0.418923    0.669015
      4          1                    1.611207    2.327942    0.108188
      5          7                   -0.166509   -0.165001    0.017840
 ---------------------------------------------------------------------
   CHANGE IN THE REACTION COORDINATE =    0.10048
   NET REACTION COORDINATE UP TO THIS POINT =    0.50190
  # OF POINTS ALONG THE PATH =   5
  # OF STEPS =   1

 Calculating another point on the path.
 Point Number  6 in FORWARD path direction.
 Using LQA Reaction Path Following.
   LQA: T_Est iteration completed in    2 iterations.
 IRC-IRC-IRC-IRC-IRC-IRC-IRC-IRC-IRC-IRC-IRC-IRC-IRC-IRC-IRC-IRC-IRC-IRC
 Leave Link  123 at Tue Apr  9 22:07:51 2024, MaxMem=   104857600 cpu:               0.0 elap:               0.0
 (Enter /opt/g16/l202.exe)
                          Input orientation:                          
 ---------------------------------------------------------------------
 Center     Atomic      Atomic             Coordinates (Angstroms)
 Number     Number       Type             X           Y           Z
 ---------------------------------------------------------------------
      1          1           0        0.487712   -0.906639   -0.226598
      2          1           0       -0.175279    0.432703   -0.808067
      3          1           0        0.377193    0.439005    0.644592
      4          1           0        1.614083    2.320777    0.129407
      5          7           0       -0.165819   -0.164516    0.018806
 ---------------------------------------------------------------------
                    Distance matrix (angstroms):
                    1          2          3          4          5
     1  H    0.000000
     2  H    1.603590   0.000000
     3  H    1.606843   1.554182   0.000000
     4  H    3.436810   2.765050   2.310061   0.000000
     5  N    1.018859   1.020039   1.025040   3.058916   0.000000
 Symmetry turned off by external request.
 Stoichiometry    H4N(1-)
 Framework group  C1[X(H4N)]
 Deg. of freedom     9
 Full point group                 C1      NOp   1
 Rotational constants (GHZ):         237.5937099          48.7680812          47.2432771
 Leave Link  202 at Tue Apr  9 22:07:51 2024, MaxMem=   104857600 cpu:               0.0 elap:               0.0
 (Enter /opt/g16/l301.exe)
 Standard basis: STO-3G (5D, 7F)
 Ernie: Thresh=  0.10000D-02 Tol=  0.10000D-05 Strict=F.
     9 basis functions,    27 primitive gaussians,     9 cartesian basis functions
     6 alpha electrons        6 beta electrons
       nuclear repulsion energy        13.6661007624 Hartrees.
 IExCor=    0 DFT=F Ex=HF Corr=None ExCW=0 ScaHFX=  1.000000
 ScaDFX=  1.000000  1.000000  1.000000  1.000000 ScalE2=  1.000000  1.000000
 IRadAn=      5 IRanWt=     -1 IRanGd=            0 ICorTp=0 IEmpDi=  4
 NAtoms=    5 NActive=    5 NUniq=    5 SFac= 1.00D+00 NAtFMM=   60 NAOKFM=F Big=F
 Integral buffers will be    131072 words long.
 Raffenetti 1 integral format.
 Two-electron integral symmetry is turned off.
 Leave Link  301 at Tue Apr  9 22:07:51 2024, MaxMem=   104857600 cpu:               0.0 elap:               0.0
 (Enter /opt/g16/l402.exe)
 External calculation of energy, first and second derivatives.
 Running external command "python3 -u ../pes/h4n_anion_pes.py R"
         input file       "/home/jh-li/scratch/g16/Gau-1176974.EIn"
         output file      "/home/jh-li/scratch/g16/Gau-1176974.EOu"
         message file     "/home/jh-li/scratch/g16/Gau-1176974.EMs"
         fchk file        "/home/jh-li/scratch/g16/Gau-1176974.EFC"
         mat. el file     "/home/jh-li/scratch/g16/Gau-1176974.EUF"
 initialization done
 Recovered energy= -57.0188694987     dipole=      0.000000000000      0.000000000000      0.000000000000
 Energy=    -57.0188695     NIter=   0.
 Dipole moment=       0.000000       0.000000       0.000000
 Leave Link  402 at Tue Apr  9 22:07:51 2024, MaxMem=   104857600 cpu:               0.0 elap:               0.3
 (Enter /opt/g16/l716.exe)
 Dipole        = 0.00000000D+00 0.00000000D+00 0.00000000D+00
 -------------------------------------------------------------------
 Center     Atomic                   Forces (Hartrees/Bohr)
 Number     Number              X              Y              Z
 -------------------------------------------------------------------
      1        1           0.000045835   -0.000002942    0.000106081
      2        1          -0.000701292   -0.000836973   -0.000026850
      3        1           0.000111947    0.000386059   -0.000995910
      4        1           0.000080699   -0.000227351    0.000634779
      5        7           0.000461462    0.000681430    0.000285802
 -------------------------------------------------------------------
 Cartesian Forces:  Max     0.000995910 RMS     0.000488532
 Force constants in Cartesian coordinates: 
                1             2             3             4             5 
      1  0.181892D+00
      2 -0.191105D+00  0.259633D+00
      3 -0.482778D-01  0.706378D-01  0.731032D-01
      4 -0.607476D-02  0.171504D-01 -0.225386D-01  0.283792D-01
      5  0.131779D-03 -0.197733D-01  0.289334D-01 -0.169782D-01  0.180586D+00
      6  0.475599D-02 -0.922132D-02  0.675740D-02  0.154473D-01 -0.178397D+00
      7  0.826672D-02  0.197167D-01  0.216910D-01 -0.387489D-02 -0.525923D-02
      8 -0.179600D-01 -0.190712D-01 -0.209084D-01  0.961152D-02  0.972445D-02
      9 -0.525508D-02 -0.421701D-02 -0.685465D-02 -0.211480D-01 -0.198860D-01
     10  0.141412D-04 -0.132424D-02 -0.400680D-03  0.285840D-03  0.134567D-02
     11  0.537694D-03  0.597362D-03 -0.375997D-04  0.155965D-02 -0.194015D-03
     12  0.324512D-04  0.518753D-03  0.189112D-05  0.113757D-02  0.599130D-03
     13 -0.184097D+00  0.155570D+00  0.495254D-01 -0.187153D-01  0.207584D-01
     14  0.208397D+00 -0.221381D+00 -0.786255D-01 -0.113445D-01 -0.170341D+00
     15  0.487484D-01 -0.577187D-01 -0.730050D-01  0.271023D-01  0.168757D+00
                6             7             8             9            10 
      6  0.310012D+00
      7 -0.162527D-02  0.133261D+00
      8  0.197366D-01  0.962531D-01  0.173910D+00
      9 -0.305726D-01  0.131543D+00  0.136542D+00  0.200970D+00
     10  0.137594D-02 -0.124025D-02  0.250139D-02 -0.972021D-03  0.179995D-02
     11  0.987197D-03  0.221386D-02  0.784120D-03 -0.186841D-02  0.184591D-02
     12  0.384095D-03 -0.936636D-03 -0.186080D-02 -0.227794D-02  0.180693D-03
     13 -0.199520D-01 -0.136412D+00 -0.904079D-01 -0.104173D+00 -0.859713D-03
     14  0.166898D+00 -0.112928D+00 -0.165346D+00 -0.110572D+00 -0.436724D-02
     15 -0.286579D+00 -0.150669D+00 -0.133509D+00 -0.161260D+00 -0.183862D-03
               11            12            13            14            15 
     11  0.314359D-02
     12  0.683274D-03 -0.178601D-03
     13 -0.615700D-02 -0.414298D-03  0.340082D+00
     14 -0.433030D-02  0.594991D-04 -0.797625D-01  0.561388D+00
     15  0.235510D-03  0.207067D-02  0.750061D-01  0.222343D-01  0.518764D+00
 Leave Link  716 at Tue Apr  9 22:07:51 2024, MaxMem=   104857600 cpu:               0.0 elap:               0.0
 (Enter /opt/g16/l123.exe)
 IRC-IRC-IRC-IRC-IRC-IRC-IRC-IRC-IRC-IRC-IRC-IRC-IRC-IRC-IRC-IRC-IRC-IRC
 Pt  6 Step number   1 out of a maximum of  20
 Point Number:   6          Path Number:   1
                    CURRENT STRUCTURE
                Cartesian Coordinates (Ang):                
 ---------------------------------------------------------------------
 Center     Atomic                     Coordinates (Angstroms)
 Number     Number                        X           Y           Z
 ---------------------------------------------------------------------
      1          1                    0.487712   -0.906639   -0.226598
      2          1                   -0.175279    0.432703   -0.808067
      3          1                    0.377193    0.439005    0.644592
      4          1                    1.614083    2.320777    0.129407
      5          7                   -0.165819   -0.164516    0.018806
 ---------------------------------------------------------------------
   CHANGE IN THE REACTION COORDINATE =    0.10051
   NET REACTION COORDINATE UP TO THIS POINT =    0.60241
  # OF POINTS ALONG THE PATH =   6
  # OF STEPS =   1

 Calculating another point on the path.
 Point Number  7 in FORWARD path direction.
 Using LQA Reaction Path Following.
   LQA: T_Est iteration completed in    2 iterations.
 IRC-IRC-IRC-IRC-IRC-IRC-IRC-IRC-IRC-IRC-IRC-IRC-IRC-IRC-IRC-IRC-IRC-IRC
 Leave Link  123 at Tue Apr  9 22:07:51 2024, MaxMem=   104857600 cpu:               0.0 elap:               0.0
 (Enter /opt/g16/l202.exe)
                          Input orientation:                          
 ---------------------------------------------------------------------
 Center     Atomic      Atomic             Coordinates (Angstroms)
 Number     Number       Type             X           Y           Z
 ---------------------------------------------------------------------
      1          1           0        0.488875   -0.906634   -0.222925
      2          1           0       -0.199551    0.412693   -0.820833
      3          1           0        0.387032    0.458626    0.619701
      4          1           0        1.616641    2.312886    0.150514
      5          7           0       -0.165051   -0.163920    0.019742
 ---------------------------------------------------------------------
                    Distance matrix (angstroms):
                    1          2          3          4          5
     1  H    0.000000
     2  H    1.603761   0.000000
     3  H    1.607583   1.556061   0.000000
     4  H    3.431708   2.802284   2.273841   0.000000
     5  N    1.018886   1.019921   1.025822   3.053866   0.000000
 Symmetry turned off by external request.
 Stoichiometry    H4N(1-)
 Framework group  C1[X(H4N)]
 Deg. of freedom     9
 Full point group                 C1      NOp   1
 Rotational constants (GHZ):         238.3899599          48.9027538          47.2820252
 Leave Link  202 at Tue Apr  9 22:07:51 2024, MaxMem=   104857600 cpu:               0.0 elap:               0.0
 (Enter /opt/g16/l301.exe)
 Standard basis: STO-3G (5D, 7F)
 Ernie: Thresh=  0.10000D-02 Tol=  0.10000D-05 Strict=F.
     9 basis functions,    27 primitive gaussians,     9 cartesian basis functions
     6 alpha electrons        6 beta electrons
       nuclear repulsion energy        13.6664071117 Hartrees.
 IExCor=    0 DFT=F Ex=HF Corr=None ExCW=0 ScaHFX=  1.000000
 ScaDFX=  1.000000  1.000000  1.000000  1.000000 ScalE2=  1.000000  1.000000
 IRadAn=      5 IRanWt=     -1 IRanGd=            0 ICorTp=0 IEmpDi=  4
 NAtoms=    5 NActive=    5 NUniq=    5 SFac= 1.00D+00 NAtFMM=   60 NAOKFM=F Big=F
 Integral buffers will be    131072 words long.
 Raffenetti 1 integral format.
 Two-electron integral symmetry is turned off.
 Leave Link  301 at Tue Apr  9 22:07:52 2024, MaxMem=   104857600 cpu:               0.0 elap:               0.0
 (Enter /opt/g16/l402.exe)
 External calculation of energy, first and second derivatives.
 Running external command "python3 -u ../pes/h4n_anion_pes.py R"
         input file       "/home/jh-li/scratch/g16/Gau-1176974.EIn"
         output file      "/home/jh-li/scratch/g16/Gau-1176974.EOu"
         message file     "/home/jh-li/scratch/g16/Gau-1176974.EMs"
         fchk file        "/home/jh-li/scratch/g16/Gau-1176974.EFC"
         mat. el file     "/home/jh-li/scratch/g16/Gau-1176974.EUF"
 initialization done
 Recovered energy= -57.0190371422     dipole=      0.000000000000      0.000000000000      0.000000000000
 Energy=    -57.0190371     NIter=   0.
 Dipole moment=       0.000000       0.000000       0.000000
 Leave Link  402 at Tue Apr  9 22:07:52 2024, MaxMem=   104857600 cpu:               0.0 elap:               0.3
 (Enter /opt/g16/l716.exe)
 Dipole        = 0.00000000D+00 0.00000000D+00 0.00000000D+00
 -------------------------------------------------------------------
 Center     Atomic                   Forces (Hartrees/Bohr)
 Number     Number              X              Y              Z
 -------------------------------------------------------------------
      1        1           0.000054459    0.000002484    0.000120511
      2        1          -0.000782134   -0.000917059   -0.000035676
      3        1           0.000126329    0.000440287   -0.001081001
      4        1           0.000079593   -0.000278531    0.000706252
      5        7           0.000520234    0.000753085    0.000294279
 -------------------------------------------------------------------
 Cartesian Forces:  Max     0.001081001 RMS     0.000538947
 Force constants in Cartesian coordinates: 
                1             2             3             4             5 
      1  0.182700D+00
      2 -0.191318D+00  0.259850D+00
      3 -0.468931D-01  0.700113D-01  0.719298D-01
      4 -0.659432D-02  0.164629D-01 -0.228915D-01  0.294103D-01
      5  0.100167D-02 -0.191800D-01  0.294344D-01 -0.218851D-01  0.171918D+00
      6  0.509646D-02 -0.887987D-02  0.661315D-02  0.241301D-01 -0.174779D+00
      7  0.860418D-02  0.203732D-01  0.210736D-01 -0.442124D-02 -0.582298D-02
      8 -0.182107D-01 -0.195570D-01 -0.199326D-01  0.950287D-02  0.975807D-02
      9 -0.504747D-02 -0.439963D-02 -0.655813D-02 -0.216832D-01 -0.207955D-01
     10  0.443464D-05 -0.134810D-02 -0.429154D-03  0.321482D-03  0.130469D-02
     11  0.544288D-03  0.582459D-03 -0.394274D-04  0.147501D-02 -0.143230D-03
     12  0.297687D-04  0.533916D-03 -0.262911D-05  0.116260D-02  0.582828D-03
     13 -0.184714D+00  0.155838D+00  0.491396D-01 -0.187162D-01  0.254001D-01
     14  0.207984D+00 -0.221690D+00 -0.794738D-01 -0.555681D-02 -0.162351D+00
     15  0.468185D-01 -0.572662D-01 -0.719797D-01  0.192825D-01  0.165564D+00
                6             7             8             9            10 
      6  0.317514D+00
      7 -0.210793D-02  0.136715D+00
      8  0.187055D-01  0.100560D+00  0.180680D+00
      9 -0.298691D-01  0.128388D+00  0.134384D+00  0.188528D+00
     10  0.131890D-02 -0.126575D-02  0.269907D-02 -0.922699D-03  0.187129D-02
     11  0.862159D-03  0.239979D-02  0.873818D-03 -0.175954D-02  0.186278D-02
     12  0.516518D-03 -0.995324D-03 -0.190226D-02 -0.256888D-02  0.237510D-03
     13 -0.284355D-01 -0.139631D+00 -0.945533D-01 -0.100739D+00 -0.931506D-03
     14  0.164094D+00 -0.117513D+00 -0.171754D+00 -0.107431D+00 -0.451689D-02
     15 -0.294773D+00 -0.146354D+00 -0.131254D+00 -0.149527D+00 -0.204500D-03
               11            12            13            14            15 
     11  0.316747D-02
     12  0.750999D-03 -0.868404D-04
     13 -0.628173D-02 -0.434786D-03  0.343990D+00
     14 -0.447974D-02  0.343727D-04 -0.804015D-01  0.560265D+00
     15  0.185776D-03  0.214194D-02  0.804614D-01  0.227688D-01  0.514129D+00
 Leave Link  716 at Tue Apr  9 22:07:52 2024, MaxMem=   104857600 cpu:               0.0 elap:               0.0
 (Enter /opt/g16/l123.exe)
 IRC-IRC-IRC-IRC-IRC-IRC-IRC-IRC-IRC-IRC-IRC-IRC-IRC-IRC-IRC-IRC-IRC-IRC
 Pt  7 Step number   1 out of a maximum of  20
 Point Number:   7          Path Number:   1
                    CURRENT STRUCTURE
                Cartesian Coordinates (Ang):                
 ---------------------------------------------------------------------
 Center     Atomic                     Coordinates (Angstroms)
 Number     Number                        X           Y           Z
 ---------------------------------------------------------------------
      1          1                    0.488875   -0.906634   -0.222925
      2          1                   -0.199551    0.412693   -0.820833
      3          1                    0.387032    0.458626    0.619701
      4          1                    1.616641    2.312886    0.150514
      5          7                   -0.165051   -0.163920    0.019742
 ---------------------------------------------------------------------
   CHANGE IN THE REACTION COORDINATE =    0.10053
   NET REACTION COORDINATE UP TO THIS POINT =    0.70295
  # OF POINTS ALONG THE PATH =   7
  # OF STEPS =   1

 Calculating another point on the path.
 Point Number  8 in FORWARD path direction.
 Using LQA Reaction Path Following.
   LQA: T_Est iteration completed in    2 iterations.
 IRC-IRC-IRC-IRC-IRC-IRC-IRC-IRC-IRC-IRC-IRC-IRC-IRC-IRC-IRC-IRC-IRC-IRC
 Leave Link  123 at Tue Apr  9 22:07:52 2024, MaxMem=   104857600 cpu:               0.0 elap:               0.0
 (Enter /opt/g16/l202.exe)
                          Input orientation:                          
 ---------------------------------------------------------------------
 Center     Atomic      Atomic             Coordinates (Angstroms)
 Number     Number       Type             X           Y           Z
 ---------------------------------------------------------------------
      1          1           0        0.490193   -0.906470   -0.219187
      2          1           0       -0.223973    0.392171   -0.832610
      3          1           0        0.396121    0.477771    0.594401
      4          1           0        1.618882    2.304264    0.171500
      5          7           0       -0.164207   -0.163212    0.020640
 ---------------------------------------------------------------------
                    Distance matrix (angstroms):
                    1          2          3          4          5
     1  H    0.000000
     2  H    1.603992   0.000000
     3  H    1.608383   1.558270   0.000000
     4  H    3.425695   2.839094   2.238318   0.000000
     5  N    1.018915   1.019833   1.026659   3.048049   0.000000
 Symmetry turned off by external request.
 Stoichiometry    H4N(1-)
 Framework group  C1[X(H4N)]
 Deg. of freedom     9
 Full point group                 C1      NOp   1
 Rotational constants (GHZ):         239.2957268          49.0558192          47.3304785
 Leave Link  202 at Tue Apr  9 22:07:52 2024, MaxMem=   104857600 cpu:               0.0 elap:               0.0
 (Enter /opt/g16/l301.exe)
 Standard basis: STO-3G (5D, 7F)
 Ernie: Thresh=  0.10000D-02 Tol=  0.10000D-05 Strict=F.
     9 basis functions,    27 primitive gaussians,     9 cartesian basis functions
     6 alpha electrons        6 beta electrons
       nuclear repulsion energy        13.6668141207 Hartrees.
 IExCor=    0 DFT=F Ex=HF Corr=None ExCW=0 ScaHFX=  1.000000
 ScaDFX=  1.000000  1.000000  1.000000  1.000000 ScalE2=  1.000000  1.000000
 IRadAn=      5 IRanWt=     -1 IRanGd=            0 ICorTp=0 IEmpDi=  4
 NAtoms=    5 NActive=    5 NUniq=    5 SFac= 1.00D+00 NAtFMM=   60 NAOKFM=F Big=F
 Integral buffers will be    131072 words long.
 Raffenetti 1 integral format.
 Two-electron integral symmetry is turned off.
 Leave Link  301 at Tue Apr  9 22:07:52 2024, MaxMem=   104857600 cpu:               0.0 elap:               0.0
 (Enter /opt/g16/l402.exe)
 External calculation of energy, first and second derivatives.
 Running external command "python3 -u ../pes/h4n_anion_pes.py R"
         input file       "/home/jh-li/scratch/g16/Gau-1176974.EIn"
         output file      "/home/jh-li/scratch/g16/Gau-1176974.EOu"
         message file     "/home/jh-li/scratch/g16/Gau-1176974.EMs"
         fchk file        "/home/jh-li/scratch/g16/Gau-1176974.EFC"
         mat. el file     "/home/jh-li/scratch/g16/Gau-1176974.EUF"
 initialization done
 Recovered energy= -57.0192217769     dipole=      0.000000000000      0.000000000000      0.000000000000
 Energy=    -57.0192218     NIter=   0.
 Dipole moment=       0.000000       0.000000       0.000000
 Leave Link  402 at Tue Apr  9 22:07:52 2024, MaxMem=   104857600 cpu:               0.0 elap:               0.3
 (Enter /opt/g16/l716.exe)
 Dipole        = 0.00000000D+00 0.00000000D+00 0.00000000D+00
 -------------------------------------------------------------------
 Center     Atomic                   Forces (Hartrees/Bohr)
 Number     Number              X              Y              Z
 -------------------------------------------------------------------
      1        1           0.000063613    0.000009282    0.000133383
      2        1          -0.000846816   -0.000986903   -0.000029320
      3        1           0.000129356    0.000478698   -0.001150635
      4        1           0.000075020   -0.000329137    0.000762754
      5        7           0.000577144    0.000828361    0.000288603
 -------------------------------------------------------------------
 Cartesian Forces:  Max     0.001150635 RMS     0.000582067
 Force constants in Cartesian coordinates: 
                1             2             3             4             5 
      1  0.183576D+00
      2 -0.191524D+00  0.260030D+00
      3 -0.455210D-01  0.693491D-01  0.707106D-01
      4 -0.711551D-02  0.157651D-01 -0.232245D-01  0.309477D-01
      5  0.187828D-02 -0.185540D-01  0.298897D-01 -0.264397D-01  0.163261D+00
      6  0.542046D-02 -0.853571D-02  0.644759D-02  0.330752D-01 -0.170513D+00
      7  0.892467D-02  0.210116D-01  0.204313D-01 -0.497588D-02 -0.640983D-02
      8 -0.184197D-01 -0.200178D-01 -0.189414D-01  0.936632D-02  0.975643D-02
      9 -0.483314D-02 -0.457189D-02 -0.627040D-02 -0.221562D-01 -0.216795D-01
     10 -0.490479D-05 -0.137650D-02 -0.456864D-03  0.352038D-03  0.127090D-02
     11  0.552370D-03  0.567268D-03 -0.398493D-04  0.138575D-02 -0.951067D-04
     12  0.271722D-04  0.546539D-03 -0.932577D-05  0.119014D-02  0.577878D-03
     13 -0.185379D+00  0.156131D+00  0.487704D-01 -0.192084D-01  0.296988D-01
     14  0.207514D+00 -0.222020D+00 -0.802576D-01 -0.784869D-04 -0.154366D+00
     15  0.449109D-01 -0.567886D-01 -0.708763D-01  0.111155D-01  0.161732D+00
                6             7             8             9            10 
      6  0.324395D+00
      7 -0.251618D-02  0.139789D+00
      8  0.176976D-01  0.104533D+00  0.187248D+00
      9 -0.290791D-01  0.124748D+00  0.131603D+00  0.176448D+00
     10  0.125137D-02 -0.128030D-02  0.291512D-02 -0.859774D-03  0.194774D-02
     11  0.728527D-03  0.260477D-02  0.974547D-03 -0.163086D-02  0.188137D-02
     12  0.634463D-03 -0.104760D-02 -0.193114D-02 -0.286231D-02  0.291113D-03
     13 -0.372287D-01 -0.142456D+00 -0.983975D-01 -0.969034D-01 -0.101465D-02
     14  0.160625D+00 -0.121743D+00 -0.177959D+00 -0.103722D+00 -0.468930D-02
     15 -0.302398D+00 -0.141611D+00 -0.128427D+00 -0.138231D+00 -0.225796D-03
               11            12            13            14            15 
     11  0.320124D-02
     12  0.811264D-03  0.163602D-04
     13 -0.642409D-02 -0.461078D-03  0.348057D+00
     14 -0.464716D-02 -0.467138D-05 -0.810073D-01  0.558983D+00
     15  0.130881D-03  0.222093D-02  0.858138D-01  0.233519D-01  0.509278D+00
 Leave Link  716 at Tue Apr  9 22:07:52 2024, MaxMem=   104857600 cpu:               0.0 elap:               0.0
 (Enter /opt/g16/l123.exe)
 IRC-IRC-IRC-IRC-IRC-IRC-IRC-IRC-IRC-IRC-IRC-IRC-IRC-IRC-IRC-IRC-IRC-IRC
 Pt  8 Step number   1 out of a maximum of  20
 Point Number:   8          Path Number:   1
                    CURRENT STRUCTURE
                Cartesian Coordinates (Ang):                
 ---------------------------------------------------------------------
 Center     Atomic                     Coordinates (Angstroms)
 Number     Number                        X           Y           Z
 ---------------------------------------------------------------------
      1          1                    0.490193   -0.906470   -0.219187
      2          1                   -0.223973    0.392171   -0.832610
      3          1                    0.396121    0.477771    0.594401
      4          1                    1.618882    2.304264    0.171500
      5          7                   -0.164207   -0.163212    0.020640
 ---------------------------------------------------------------------
   CHANGE IN THE REACTION COORDINATE =    0.10055
   NET REACTION COORDINATE UP TO THIS POINT =    0.80350
  # OF POINTS ALONG THE PATH =   8
  # OF STEPS =   1

 Calculating another point on the path.
 Point Number  9 in FORWARD path direction.
 Using LQA Reaction Path Following.
   LQA: T_Est iteration completed in    2 iterations.
 IRC-IRC-IRC-IRC-IRC-IRC-IRC-IRC-IRC-IRC-IRC-IRC-IRC-IRC-IRC-IRC-IRC-IRC
 Leave Link  123 at Tue Apr  9 22:07:52 2024, MaxMem=   104857600 cpu:               0.0 elap:               0.0
 (Enter /opt/g16/l202.exe)
                          Input orientation:                          
 ---------------------------------------------------------------------
 Center     Atomic      Atomic             Coordinates (Angstroms)
 Number     Number       Type             X           Y           Z
 ---------------------------------------------------------------------
      1          1           0        0.491686   -0.906132   -0.215372
      2          1           0       -0.248518    0.371142   -0.843378
      3          1           0        0.404436    0.496428    0.568755
      4          1           0        1.620814    2.294908    0.192353
      5          7           0       -0.163289   -0.162392    0.021495
 ---------------------------------------------------------------------
                    Distance matrix (angstroms):
                    1          2          3          4          5
     1  H    0.000000
     2  H    1.604283   0.000000
     3  H    1.609237   1.560822   0.000000
     4  H    3.418747   2.875416   2.203585   0.000000
     5  N    1.018944   1.019768   1.027545   3.041470   0.000000
 Symmetry turned off by external request.
 Stoichiometry    H4N(1-)
 Framework group  C1[X(H4N)]
 Deg. of freedom     9
 Full point group                 C1      NOp   1
 Rotational constants (GHZ):         240.3099046          49.2269088          47.3894865
 Leave Link  202 at Tue Apr  9 22:07:52 2024, MaxMem=   104857600 cpu:               0.0 elap:               0.0
 (Enter /opt/g16/l301.exe)
 Standard basis: STO-3G (5D, 7F)
 Ernie: Thresh=  0.10000D-02 Tol=  0.10000D-05 Strict=F.
     9 basis functions,    27 primitive gaussians,     9 cartesian basis functions
     6 alpha electrons        6 beta electrons
       nuclear repulsion energy        13.6673522133 Hartrees.
 IExCor=    0 DFT=F Ex=HF Corr=None ExCW=0 ScaHFX=  1.000000
 ScaDFX=  1.000000  1.000000  1.000000  1.000000 ScalE2=  1.000000  1.000000
 IRadAn=      5 IRanWt=     -1 IRanGd=            0 ICorTp=0 IEmpDi=  4
 NAtoms=    5 NActive=    5 NUniq=    5 SFac= 1.00D+00 NAtFMM=   60 NAOKFM=F Big=F
 Integral buffers will be    131072 words long.
 Raffenetti 1 integral format.
 Two-electron integral symmetry is turned off.
 Leave Link  301 at Tue Apr  9 22:07:52 2024, MaxMem=   104857600 cpu:               0.1 elap:               0.1
 (Enter /opt/g16/l402.exe)
 External calculation of energy, first and second derivatives.
 Running external command "python3 -u ../pes/h4n_anion_pes.py R"
         input file       "/home/jh-li/scratch/g16/Gau-1176974.EIn"
         output file      "/home/jh-li/scratch/g16/Gau-1176974.EOu"
         message file     "/home/jh-li/scratch/g16/Gau-1176974.EMs"
         fchk file        "/home/jh-li/scratch/g16/Gau-1176974.EFC"
         mat. el file     "/home/jh-li/scratch/g16/Gau-1176974.EUF"
 initialization done
[...]
 Number     Number       Type             X           Y           Z
 ---------------------------------------------------------------------
      1          1           0        0.501476   -0.857588   -0.314049
      2          1           0        0.304259    0.745533   -0.263514
      3          1           0       -0.075390   -0.151657    1.013656
      4          1           0        1.455207    2.282407   -0.402319
      5          7           0       -0.157261   -0.145316   -0.002659
 ---------------------------------------------------------------------
                    Distance matrix (angstroms):
                    1          2          3          4          5
     1  H    0.000000
     2  H    1.615996   0.000000
     3  H    1.610563   1.606315   0.000000
     4  H    3.282828   1.925079   3.205055   0.000000
     5  N    1.018935   1.036657   1.019627   2.941703   0.000000
 Symmetry turned off by external request.
 Stoichiometry    H4N(1-)
 Framework group  C1[X(H4N)]
 Deg. of freedom     9
 Full point group                 C1      NOp   1
 Rotational constants (GHZ):         255.6355453          51.7515035          48.5912886
 Leave Link  202 at Tue Apr  9 22:08:06 2024, MaxMem=   104857600 cpu:               0.0 elap:               0.0
 (Enter /opt/g16/l301.exe)
 Standard basis: STO-3G (5D, 7F)
 Ernie: Thresh=  0.10000D-02 Tol=  0.10000D-05 Strict=F.
     9 basis functions,    27 primitive gaussians,     9 cartesian basis functions
     6 alpha electrons        6 beta electrons
       nuclear repulsion energy        13.6874665808 Hartrees.
 IExCor=    0 DFT=F Ex=HF Corr=None ExCW=0 ScaHFX=  1.000000
 ScaDFX=  1.000000  1.000000  1.000000  1.000000 ScalE2=  1.000000  1.000000
 IRadAn=      5 IRanWt=     -1 IRanGd=            0 ICorTp=0 IEmpDi=  4
 NAtoms=    5 NActive=    5 NUniq=    5 SFac= 1.00D+00 NAtFMM=   60 NAOKFM=F Big=F
 Integral buffers will be    131072 words long.
 Raffenetti 1 integral format.
 Two-electron integral symmetry is turned off.
 Leave Link  301 at Tue Apr  9 22:08:06 2024, MaxMem=   104857600 cpu:               0.1 elap:               0.1
 (Enter /opt/g16/l402.exe)
 External calculation of energy, first and second derivatives.
 Running external command "python3 -u ../pes/h4n_anion_pes.py R"
         input file       "/home/jh-li/scratch/g16/Gau-1176974.EIn"
         output file      "/home/jh-li/scratch/g16/Gau-1176974.EOu"
         message file     "/home/jh-li/scratch/g16/Gau-1176974.EMs"
         fchk file        "/home/jh-li/scratch/g16/Gau-1176974.EFC"
         mat. el file     "/home/jh-li/scratch/g16/Gau-1176974.EUF"
 initialization done
 Recovered energy= -57.0211097079     dipole=      0.000000000000      0.000000000000      0.000000000000
 Energy=    -57.0211097     NIter=   0.
 Dipole moment=       0.000000       0.000000       0.000000
 Leave Link  402 at Tue Apr  9 22:08:07 2024, MaxMem=   104857600 cpu:               0.0 elap:               0.3
 (Enter /opt/g16/l716.exe)
 Dipole        = 0.00000000D+00 0.00000000D+00 0.00000000D+00
 -------------------------------------------------------------------
 Center     Atomic                   Forces (Hartrees/Bohr)
 Number     Number              X              Y              Z
 -------------------------------------------------------------------
      1        1           0.000065783    0.000111122   -0.000008085
      2        1          -0.000053295   -0.000153468    0.000338308
      3        1          -0.000267361   -0.000265870   -0.000512337
      4        1          -0.000051160   -0.000110727   -0.000216392
      5        7           0.000307013    0.000418320    0.000390343
 -------------------------------------------------------------------
 Cartesian Forces:  Max     0.000512337 RMS     0.000264016
 Force constants in Cartesian coordinates: 
                1             2             3             4             5 
      1  0.181070D+00
      2 -0.180228D+00  0.242562D+00
      3 -0.877964D-01  0.832943D-01  0.890209D-01
      4  0.520135D-02  0.287051D-01 -0.746765D-02  0.925871D-01
      5 -0.136348D-01 -0.248510D-01  0.748157D-02  0.107611D+00  0.291243D+00
      6 -0.567540D-02 -0.138926D-01  0.314105D-02 -0.469582D-01 -0.709227D-01
      7 -0.299387D-02  0.366764D-03  0.284768D-01 -0.185378D-02 -0.160765D-02
      8 -0.174951D-02 -0.889796D-03 -0.330054D-01  0.222322D-02  0.452499D-03
      9 -0.550457D-02  0.336149D-02 -0.152120D-01 -0.513332D-02 -0.368236D-02
     10  0.153615D-03 -0.186273D-02 -0.104099D-03 -0.759327D-03  0.645750D-02
     11  0.733426D-03  0.659477D-03 -0.102092D-03  0.506551D-02  0.199029D-02
     12  0.243203D-04  0.614749D-03 -0.384169D-03 -0.106110D-03  0.439826D-04
     13 -0.183428D+00  0.153025D+00  0.668967D-01 -0.951736D-01 -0.988285D-01
     14  0.194880D+00 -0.217474D+00 -0.576712D-01 -0.143611D+00 -0.268834D+00
     15  0.989469D-01 -0.733789D-01 -0.765632D-01  0.596585D-01  0.670771D-01
                6             7             8             9            10 
      6  0.858660D-01
      7  0.172525D-01  0.252627D-01
      8  0.378472D-01 -0.689368D-02  0.527561D-01
      9 -0.166170D-01  0.164497D-01 -0.389405D-02  0.434768D+00
     10 -0.880217D-03 -0.167513D-03  0.169159D-03  0.674047D-03  0.252143D-02
     11 -0.794337D-03  0.519854D-03 -0.733731D-04  0.423580D-03  0.217833D-02
     12 -0.521513D-02 -0.779127D-03 -0.156069D-02  0.109202D-02 -0.448167D-03
     13  0.362643D-01 -0.202466D-01  0.625116D-02 -0.648779D-02 -0.174818D-02
     14  0.477653D-01  0.761287D-02 -0.522417D-01  0.378870D-02 -0.693977D-02
     15 -0.671724D-01 -0.614034D-01  0.612768D-03 -0.404037D+00  0.758766D-03
               11            12            13            14            15 
     11  0.493346D-02
     12 -0.925633D-03  0.124337D-02
     13 -0.849657D-02  0.130923D-02  0.300591D+00
     14 -0.750870D-02  0.182702D-02 -0.519462D-01  0.546046D+00
     15  0.139861D-02  0.326383D-02 -0.979672D-01  0.429348D-02  0.544510D+00
 Leave Link  716 at Tue Apr  9 22:08:07 2024, MaxMem=   104857600 cpu:               0.0 elap:               0.0
 (Enter /opt/g16/l123.exe)
 IRC-IRC-IRC-IRC-IRC-IRC-IRC-IRC-IRC-IRC-IRC-IRC-IRC-IRC-IRC-IRC-IRC-IRC
 Pt 39 Step number   1 out of a maximum of  20
 Point Number:  19          Path Number:   2
                    CURRENT STRUCTURE
                Cartesian Coordinates (Ang):                
 ---------------------------------------------------------------------
 Center     Atomic                     Coordinates (Angstroms)
 Number     Number                        X           Y           Z
 ---------------------------------------------------------------------
      1          1                    0.501476   -0.857588   -0.314049
      2          1                    0.304259    0.745533   -0.263514
      3          1                   -0.075390   -0.151657    1.013656
      4          1                    1.455207    2.282407   -0.402319
      5          7                   -0.157261   -0.145316   -0.002659
 ---------------------------------------------------------------------
   CHANGE IN THE REACTION COORDINATE =    0.10042
   NET REACTION COORDINATE UP TO THIS POINT =    1.90952
  # OF POINTS ALONG THE PATH =  39
  # OF STEPS =   1

 Calculating another point on the path.
 Point Number 20 in REVERSE path direction.
 Using LQA Reaction Path Following.
   LQA: T_Est iteration completed in    6 iterations.
 IRC-IRC-IRC-IRC-IRC-IRC-IRC-IRC-IRC-IRC-IRC-IRC-IRC-IRC-IRC-IRC-IRC-IRC
 Leave Link  123 at Tue Apr  9 22:08:07 2024, MaxMem=   104857600 cpu:               0.0 elap:               0.0
 (Enter /opt/g16/l202.exe)
                          Input orientation:                          
 ---------------------------------------------------------------------
 Center     Atomic      Atomic             Coordinates (Angstroms)
 Number     Number       Type             X           Y           Z
 ---------------------------------------------------------------------
      1          1           0        0.511562   -0.846498   -0.317494
      2          1           0        0.307377    0.753417   -0.237713
      3          1           0       -0.099601   -0.176654    1.014560
      4          1           0        1.452154    2.271707   -0.423366
      5          7           0       -0.156237   -0.144120   -0.002921
 ---------------------------------------------------------------------
                    Distance matrix (angstroms):
                    1          2          3          4          5
     1  H    0.000000
     2  H    1.614864   0.000000
     3  H    1.611390   1.612095   0.000000
     4  H    3.258700   1.910547   3.235745   0.000000
     5  N    1.018944   1.037129   1.019575   2.932561   0.000000
 Symmetry turned off by external request.
 Stoichiometry    H4N(1-)
 Framework group  C1[X(H4N)]
 Deg. of freedom     9
 Full point group                 C1      NOp   1
 Rotational constants (GHZ):         257.1856486          51.9833620          48.7177023
 Leave Link  202 at Tue Apr  9 22:08:07 2024, MaxMem=   104857600 cpu:               0.0 elap:               0.0
 (Enter /opt/g16/l301.exe)
 Standard basis: STO-3G (5D, 7F)
 Ernie: Thresh=  0.10000D-02 Tol=  0.10000D-05 Strict=F.
     9 basis functions,    27 primitive gaussians,     9 cartesian basis functions
     6 alpha electrons        6 beta electrons
       nuclear repulsion energy        13.6905163954 Hartrees.
 IExCor=    0 DFT=F Ex=HF Corr=None ExCW=0 ScaHFX=  1.000000
 ScaDFX=  1.000000  1.000000  1.000000  1.000000 ScalE2=  1.000000  1.000000
 IRadAn=      5 IRanWt=     -1 IRanGd=            0 ICorTp=0 IEmpDi=  4
 NAtoms=    5 NActive=    5 NUniq=    5 SFac= 1.00D+00 NAtFMM=   60 NAOKFM=F Big=F
 Integral buffers will be    131072 words long.
 Raffenetti 1 integral format.
 Two-electron integral symmetry is turned off.
 Leave Link  301 at Tue Apr  9 22:08:07 2024, MaxMem=   104857600 cpu:               0.0 elap:               0.0
 (Enter /opt/g16/l402.exe)
 External calculation of energy, first and second derivatives.
 Running external command "python3 -u ../pes/h4n_anion_pes.py R"
         input file       "/home/jh-li/scratch/g16/Gau-1176974.EIn"
         output file      "/home/jh-li/scratch/g16/Gau-1176974.EOu"
         message file     "/home/jh-li/scratch/g16/Gau-1176974.EMs"
         fchk file        "/home/jh-li/scratch/g16/Gau-1176974.EFC"
         mat. el file     "/home/jh-li/scratch/g16/Gau-1176974.EUF"
 initialization done
 Recovered energy= -57.0211432532     dipole=      0.000000000000      0.000000000000      0.000000000000
 Energy=    -57.0211433     NIter=   0.
 Dipole moment=       0.000000       0.000000       0.000000
 Leave Link  402 at Tue Apr  9 22:08:07 2024, MaxMem=   104857600 cpu:               0.0 elap:               0.3
 (Enter /opt/g16/l716.exe)
 Dipole        = 0.00000000D+00 0.00000000D+00 0.00000000D+00
 -------------------------------------------------------------------
 Center     Atomic                   Forces (Hartrees/Bohr)
 Number     Number              X              Y              Z
 -------------------------------------------------------------------
      1        1          -0.000003116    0.000086057    0.000052603
      2        1          -0.000115914   -0.000198394    0.000137741
      3        1          -0.000072861   -0.000077262   -0.000520620
      4        1          -0.000003828   -0.000030477   -0.000061283
      5        7           0.000196554    0.000219282    0.000383320
 -------------------------------------------------------------------
 Cartesian Forces:  Max     0.000520620 RMS     0.000200437
 Force constants in Cartesian coordinates: 
                1             2             3             4             5 
      1  0.186075D+00
      2 -0.180129D+00  0.237337D+00
      3 -0.904500D-01  0.827857D-01  0.892207D-01
      4  0.533645D-02  0.291584D-01 -0.670330D-02  0.931315D-01
      5 -0.135609D-01 -0.248568D-01  0.649801D-02  0.108260D+00  0.293698D+00
      6 -0.578810D-02 -0.139645D-01  0.279838D-02 -0.433959D-01 -0.630286D-01
      7 -0.346589D-02 -0.497703D-03  0.287576D-01 -0.219356D-02 -0.159978D-02
      8 -0.951634D-03 -0.120326D-03 -0.325326D-01  0.182787D-02  0.174262D-03
      9 -0.535581D-02  0.376184D-02 -0.154353D-01 -0.494335D-02 -0.366160D-02
     10  0.176112D-03 -0.184595D-02 -0.127098D-03 -0.732432D-03  0.662589D-02
     11  0.759641D-03  0.749660D-03 -0.111512D-03  0.518087D-02  0.201468D-02
     12  0.754848D-05  0.644444D-03 -0.417713D-03 -0.329380D-03 -0.293402D-03
     13 -0.188119D+00  0.153320D+00  0.685283D-01 -0.955405D-01 -0.997285D-01
     14  0.193884D+00 -0.213102D+00 -0.566424D-01 -0.144434D+00 -0.271029D+00
     15  0.101581D+00 -0.732283D-01 -0.761636D-01  0.553652D-01  0.604831D-01
                6             7             8             9            10 
      6  0.808577D-01
      7  0.172283D-01  0.245111D-01
      8  0.380004D-01 -0.709216D-02  0.530094D-01
      9 -0.151610D-01  0.625534D-02 -0.136488D-01  0.434751D+00
     10 -0.106711D-02 -0.186295D-03  0.394471D-04  0.765605D-03  0.259401D-02
     11 -0.102924D-02  0.406254D-03 -0.204167D-03  0.577401D-03  0.226054D-02
     12 -0.525232D-02 -0.793707D-03 -0.154421D-02  0.103043D-02 -0.410267D-03
     13  0.330257D-01 -0.186646D-01  0.617688D-02  0.327620D-02 -0.185138D-02
     14  0.400248D-01  0.878157D-02 -0.528552D-01  0.129684D-01 -0.707740D-02
     15 -0.632406D-01 -0.514506D-01  0.972563D-02 -0.405192D+00  0.839199D-03
               11            12            13            14            15 
     11  0.506274D-02
     12 -0.915994D-03  0.130404D-02
     13 -0.860670D-02  0.152594D-02  0.304171D+00
     14 -0.762178D-02  0.210851D-02 -0.511574D-01  0.544595D+00
     15  0.147947D-02  0.333543D-02 -0.106341D+00  0.154340D-02  0.541263D+00
 Leave Link  716 at Tue Apr  9 22:08:07 2024, MaxMem=   104857600 cpu:               0.0 elap:               0.0
 (Enter /opt/g16/l123.exe)
 IRC-IRC-IRC-IRC-IRC-IRC-IRC-IRC-IRC-IRC-IRC-IRC-IRC-IRC-IRC-IRC-IRC-IRC
 Pt 40 Step number   1 out of a maximum of  20
 Point Number:  20          Path Number:   2
                    CURRENT STRUCTURE
                Cartesian Coordinates (Ang):                
 ---------------------------------------------------------------------
 Center     Atomic                     Coordinates (Angstroms)
 Number     Number                        X           Y           Z
 ---------------------------------------------------------------------
      1          1                    0.511562   -0.846498   -0.317494
      2          1                    0.307377    0.753417   -0.237713
      3          1                   -0.099601   -0.176654    1.014560
      4          1                    1.452154    2.271707   -0.423366
      5          7                   -0.156237   -0.144120   -0.002921
 ---------------------------------------------------------------------
   CHANGE IN THE REACTION COORDINATE =    0.10017
   NET REACTION COORDINATE UP TO THIS POINT =    2.00969
  # OF POINTS ALONG THE PATH =  40
  # OF STEPS =   1

 Calculating another point on the path.
 Point Number 21 in REVERSE path direction.
 Using LQA Reaction Path Following.
   LQA: T_Est iteration completed in    7 iterations.
 PES minimum detected within a second-order step.
 Calculation of REVERSE path complete.
 Reaction path calculation complete.
 
 Energies reported relative to the TS energy of         -57.018369
 --------------------------------------------------------------------------
    Summary of reaction path following
 --------------------------------------------------------------------------
                        Energy    RxCoord
   1                   -0.00277  -2.00969
   2                   -0.00274  -1.90952
   3                   -0.00267  -1.80910
   4                   -0.00257  -1.70860
   5                   -0.00243  -1.60807
   6                   -0.00227  -1.50752
   7                   -0.00209  -1.40695
   8                   -0.00189  -1.30638
   9                   -0.00168  -1.20581
  10                   -0.00147  -1.10524
  11                   -0.00126  -1.00466
  12                   -0.00105  -0.90410
  13                   -0.00085  -0.80354
  14                   -0.00067  -0.70298
  15                   -0.00050  -0.60245
  16                   -0.00035  -0.50194
  17                   -0.00023  -0.40146
  18                   -0.00013  -0.30104
  19                   -0.00006  -0.20072
  20                   -0.00001  -0.10067
  21                    0.00000   0.00000
  22                   -0.00001   0.10067
  23                   -0.00006   0.20068
  24                   -0.00013   0.30100
  25                   -0.00023   0.40143
  26                   -0.00035   0.50190
  27                   -0.00050   0.60241
  28                   -0.00067   0.70295
  29                   -0.00085   0.80350
  30                   -0.00105   0.90406
  31                   -0.00126   1.00462
  32                   -0.00147   1.10519
  33                   -0.00168   1.20577
  34                   -0.00189   1.30634
  35                   -0.00209   1.40691
  36                   -0.00227   1.50747
  37                   -0.00243   1.60802
  38                   -0.00256   1.70856
  39                   -0.00267   1.80905
  40                   -0.00274   1.90947
  41                   -0.00277   2.00961
 --------------------------------------------------------------------------
 
 Total number of points:                   40
 Total number of gradient calculations:    41
 Total number of Hessian calculations:     41
 IRC-IRC-IRC-IRC-IRC-IRC-IRC-IRC-IRC-IRC-IRC-IRC-IRC-IRC-IRC-IRC-IRC-IRC
 Leave Link  123 at Tue Apr  9 22:08:07 2024, MaxMem=   104857600 cpu:               0.0 elap:               0.1
 (Enter /opt/g16/l202.exe)
                          Input orientation:                          
 ---------------------------------------------------------------------
 Center     Atomic      Atomic             Coordinates (Angstroms)
 Number     Number       Type             X           Y           Z
 ---------------------------------------------------------------------
      1          1           0        0.511562   -0.846498   -0.317494
      2          1           0        0.307377    0.753417   -0.237713
      3          1           0       -0.099601   -0.176654    1.014560
      4          1           0        1.452154    2.271707   -0.423366
      5          7           0       -0.156237   -0.144120   -0.002921
 ---------------------------------------------------------------------
                    Distance matrix (angstroms):
                    1          2          3          4          5
     1  H    0.000000
     2  H    1.614864   0.000000
     3  H    1.611390   1.612095   0.000000
     4  H    3.258700   1.910547   3.235745   0.000000
     5  N    1.018944   1.037129   1.019575   2.932561   0.000000
 Symmetry turned off by external request.
 Stoichiometry    H4N(1-)
 Framework group  C1[X(H4N)]
 Deg. of freedom     9
 Full point group                 C1      NOp   1
 Rotational constants (GHZ):         257.1856486          51.9833620          48.7177023
 Leave Link  202 at Tue Apr  9 22:08:07 2024, MaxMem=   104857600 cpu:               0.0 elap:               0.0
 (Enter /opt/g16/l601.exe)
 Leave Link  601 at Tue Apr  9 22:08:07 2024, MaxMem=   104857600 cpu:               0.0 elap:               0.0
 (Enter /opt/g16/l9999.exe)

 This type of calculation cannot be archived.


 WHEN YOU REACH FOR THE STARS, YOU MAY NOT QUITE GET ONE,
 BUT YOU WON'T COME UP WITH A HANDFUL OF MUD, EITHER.

                                         -- LEO BURNETT (AD AGENCY HEAD)
 Job cpu time:       0 days  0 hours  0 minutes  7.2 seconds.
 Elapsed time:       0 days  0 hours  0 minutes 18.0 seconds.
 File lengths (MBytes):  RWF=      6 Int=      0 D2E=      0 Chk=      2 Scr=      1
 Normal termination of Gaussian 16 at Tue Apr  9 22:08:07 2024.
