 Entering Gaussian System, Link 0=g16
 Initial command:
 /opt/g16/l1.exe "/home/jh-li/scratch/g16/Gau-1179676.inp" -scrdir="/home/jh-li/scratch/g16/"
 Entering Link 1 = /opt/g16/l1.exe PID=   1179679.
  
 Copyright (c) 1988-2019, Gaussian, Inc.  All Rights Reserved.
  
 This is part of the Gaussian(R) 16 program.  It is based on
 the Gaussian(R) 09 system (copyright 2009, Gaussian, Inc.),
 the Gaussian(R) 03 system (copyright 2003, Gaussian, Inc.),
 the Gaussian(R) 98 system (copyright 1998, Gaussian, Inc.),
 the Gaussian(R) 94 system (copyright 1995, Gaussian, Inc.),
 the Gaussian 92(TM) system (copyright 1992, Gaussian, Inc.),
 the Gaussian 90(TM) system (copyright 1990, Gaussian, Inc.),
 the Gaussian 88(TM) system (copyright 1988, Gaussian, Inc.),
 the Gaussian 86(TM) system (copyright 1986, Carnegie Mellon
 University), and the Gaussian 82(TM) system (copyright 1983,
 Carnegie Mellon University). Gaussian is a federally registered
 trademark of Gaussian, Inc.
  
 This software contains proprietary and confidential information,
 including trade secrets, belonging to Gaussian, Inc.
  
 This software is provided under written license and may be
 used, copied, transmitted, or stored only in accord with that
 written license.
  
 The following legend is applicable only to US Government
 contracts under FAR:
  
                    RESTRICTED RIGHTS LEGEND
  
 Use, reproduction and disclosure by the US Government is
 subject to restrictions as set forth in subparagraphs (a)
 and (c) of the Commercial Computer Software - Restricted
 Rights clause in FAR 52.227-19.
  
 Gaussian, Inc.
 340 Quinnipiac St., Bldg. 40, Wallingford CT 06492
  
  
 ---------------------------------------------------------------
 Warning -- This program may not be used in any manner that
 competes with the business of Gaussian, Inc. or will provide
 assistance to any competitor of Gaussian, Inc.  The licensee
 of this program is prohibited from giving any competitor of
 Gaussian, Inc. access to this program.  By using this program,
 the user acknowledges that Gaussian, Inc. is engaged in the
 business of creating and licensing software in the field of
 computational chemistry and represents and warrants to the
 licensee that it is not a competitor of Gaussian, Inc. and that
 it will not use this program in any manner prohibited above.
 ---------------------------------------------------------------
  

 Cite this work as:
 Gaussian 16, Revision C.01,
 M. J. Frisch, G. W. Trucks, H. B. Schlegel, G. E. Scuseria, 
 M. A. Robb, J. R. Cheeseman, G. Scalmani, V. Barone, 
 G. A. Petersson, H. Nakatsuji, X. Li, M. Caricato, A. V. Marenich, 
 J. Bloino, B. G. Janesko, R. Gomperts, B. Mennucci, H. P. Hratchian, 
 J. V. Ortiz, A. F. Izmaylov, J. L. Sonnenberg, D. Williams-Young, 
 F. Ding, F. Lipparini, F. Egidi, J. Goings, B. Peng, A. Petrone, 
 T. Henderson, D. Ranasinghe, V. G. Zakrzewski, J. Gao, N. Rega, 
 G. Zheng, W. Liang, M. Hada, M. Ehara, K. Toyota, R. Fukuda, 
 J. Hasegawa, M. Ishida, T. Nakajima, Y. Honda, O. Kitao, H. Nakai, 
 T. Vreven, K. Throssell, J. A. Montgomery, Jr., J. E. Peralta, 
 F. Ogliaro, M. J. Bearpark, J. J. Heyd, E. N. Brothers, K. N. Kudin, 
 V. N. Staroverov, T. A. Keith, R. Kobayashi, J. Normand, 
 K. Raghavachari, A. P. Rendell, J. C. Burant, S. S. Iyengar, 
 J. Tomasi, M. Cossi, J. M. Millam, M. Klene, C. Adamo, R. Cammi, 
 J. W. Ochterski, R. L. Martin, K. Morokuma, O. Farkas, 
 J. B. Foresman, and D. J. Fox, Gaussian, Inc., Wallingford CT, 2019.
 
 ******************************************
 Gaussian 16:  ES64L-G16RevC.01  3-Jul-2019
                 9-Apr-2024 
 ******************************************
 %nproc=1
 Will use up to    1 processors via shared memory.
 %oldchk=ts3-opt-freq.chk
 Copying data from "ts3-opt-freq.chk" to current chk file "/home/jh-li/scratch/g16/Gau-1179679.chk"
 IOpt=  2 FromEx=T IUOpen= 4 IOptOp= 5 NList=   0 IFRang= 0 IUIn= 4 IUOut= 2.
 ----------------------------------------------------------------------
 #p external="python3 -u ../pes/h4n_anion_pes.py" irc=(calcall,stepsize
 =3,maxpoint=100) geom=allcheck
 ----------------------------------------------------------------------
 1/6=10,10=4,18=10,26=1,29=7,38=1,39=3,42=100,44=3,71=1,172=1/1,23;
 2/12=2,29=1,40=1/2;
 3/11=9,14=-4,25=1,30=1,41=9900000,43=2,71=2,140=1/1;
 4/20=17,22=1002,24=3,113=1,114=1/2;
 6/7=2,8=2,9=2,10=2,18=1/1;
 7/25=1,44=-1/16;
 1/6=10,10=4,18=10,26=1,39=3,42=100,44=3,71=1/23(2);
 2/29=1/2;
 99/5=20/99;
 2/29=1/2;
 3/11=9,14=-2,25=1,30=1,41=9900000,43=2,71=2,140=1/1;
 4/16=2,20=17,22=1002,24=3,113=1,114=1/2;
 7/25=1,44=-1/16;
 1/6=10,10=4,18=10,26=1,39=3,42=100,44=3,71=1/23(-4);
 2/29=1/2;
 6/7=2,8=2,9=2,10=2,18=1/1;
 99/5=20/99;
 Leave Link    1 at Tue Apr  9 22:12:25 2024, MaxMem=   104857600 cpu:               0.0 elap:               0.0
 (Enter /opt/g16/l101.exe)
 Structure from the checkpoint file:  "/home/jh-li/scratch/g16/Gau-1179679.chk"
 -------------------
 H^- + NH3 -> NhH4^-
 -------------------
 Charge = -1 Multiplicity = 1
 Redundant internal coordinates found in file.  (old form).
 H,0,-0.9532156459,-0.1119924583,-0.3893540725
 H,0,0.379589563,0.8815138885,-0.3893639326
 H,0,0.5735923055,-0.7694776066,-0.389442572
 H,0,0.0000275874,-0.0000283937,1.5044539435
 N,0,0.0000004454,-0.0000011104,-0.0242000996
 Recover connectivity data from disk.
 ITRead=  0  0  0  0  0
 MicOpt= -1 -1 -1 -1 -1
 NAtoms=      5 NQM=        5 NQMF=       0 NMMI=      0 NMMIF=      0
                NMic=       0 NMicF=      0.
                    Isotopes and Nuclear Properties:
 (Nuclear quadrupole moments (NQMom) in fm**2, nuclear magnetic moments (NMagM)
  in nuclear magnetons)

  Atom         1           2           3           4           5
 IAtWgt=           1           1           1           1          14
 AtmWgt=   1.0078250   1.0078250   1.0078250   1.0078250  14.0030740
 NucSpn=           1           1           1           1           2
 AtZEff=   1.0000000   1.0000000   1.0000000   1.0000000   4.5500000
 NQMom=    0.0000000   0.0000000   0.0000000   0.0000000   2.0440000
 NMagM=    2.7928460   2.7928460   2.7928460   2.7928460   0.4037610
 AtZNuc=   1.0000000   1.0000000   1.0000000   1.0000000   7.0000000
 Leave Link  101 at Tue Apr  9 22:12:25 2024, MaxMem=   104857600 cpu:               0.2 elap:               0.2
 (Enter /opt/g16/l123.exe)
 IRC-IRC-IRC-IRC-IRC-IRC-IRC-IRC-IRC-IRC-IRC-IRC-IRC-IRC-IRC-IRC-IRC-IRC
 ------------------------------------------------------------------------
 INPUT DATA FOR L123
 ------------------------------------------------------------------------
 GENERAL PARAMETERS:
 Follow reaction path in both directions.
 Maximum points per path      = 100
 Step size                    =   0.030 bohr
 Integration scheme           = HPC                                 
    Redo corrector integration= Yes                                 
    DWI Weight Power          =  2
    DWI will use Hessian update vectors when possible.
    Max correction cycles     =  10
 Initial Hessian              = CalcFC
 Hessian evaluation           = Analytic at all predictor steps
                              = Update at all corrector steps
 Hessian updating method      = Bofill                              
 ------------------------------------------------------------------------
 IRC-IRC-IRC-IRC-IRC-IRC-IRC-IRC-IRC-IRC-IRC-IRC-IRC-IRC-IRC-IRC-IRC-IRC
 Leave Link  123 at Tue Apr  9 22:12:25 2024, MaxMem=   104857600 cpu:               0.0 elap:               0.0
 (Enter /opt/g16/l202.exe)
                          Input orientation:                          
 ---------------------------------------------------------------------
 Center     Atomic      Atomic             Coordinates (Angstroms)
 Number     Number       Type             X           Y           Z
 ---------------------------------------------------------------------
      1          1           0       -0.953216   -0.111992   -0.389354
      2          1           0        0.379590    0.881514   -0.389364
      3          1           0        0.573592   -0.769478   -0.389443
      4          1           0        0.000028   -0.000028    1.504454
      5          7           0        0.000000   -0.000001   -0.024200
 ---------------------------------------------------------------------
                    Distance matrix (angstroms):
                    1          2          3          4          5
     1  H    0.000000
     2  H    1.662355   0.000000
     3  H    1.662357   1.662351   0.000000
     4  H    2.123139   2.123142   2.123175   0.000000
     5  N    1.026889   1.026889   1.026890   1.528654   0.000000
 Symmetry turned off by external request.
 Stoichiometry    H4N(1-)
 Framework group  C1[X(H4N)]
 Deg. of freedom     9
 Full point group                 C1      NOp   1
 Rotational constants (GHZ):         181.4616937         122.0652663         122.0649215
 Leave Link  202 at Tue Apr  9 22:12:25 2024, MaxMem=   104857600 cpu:               0.0 elap:               0.0
 (Enter /opt/g16/l301.exe)
 Standard basis: STO-3G (5D, 7F)
 Ernie: Thresh=  0.10000D-02 Tol=  0.10000D-05 Strict=F.
     9 basis functions,    27 primitive gaussians,     9 cartesian basis functions
     6 alpha electrons        6 beta electrons
       nuclear repulsion energy        14.9476498006 Hartrees.
 IExCor=    0 DFT=F Ex=HF Corr=None ExCW=0 ScaHFX=  1.000000
 ScaDFX=  1.000000  1.000000  1.000000  1.000000 ScalE2=  1.000000  1.000000
 IRadAn=      5 IRanWt=     -1 IRanGd=            0 ICorTp=0 IEmpDi=  4
 NAtoms=    5 NActive=    5 NUniq=    5 SFac= 1.00D+00 NAtFMM=   60 NAOKFM=F Big=F
 Integral buffers will be    131072 words long.
 Raffenetti 1 integral format.
 Two-electron integral symmetry is turned off.
 Leave Link  301 at Tue Apr  9 22:12:25 2024, MaxMem=   104857600 cpu:               0.0 elap:               0.0
 (Enter /opt/g16/l402.exe)
 External calculation of energy, first and second derivatives.
 Running external command "python3 -u ../pes/h4n_anion_pes.py R"
         input file       "/home/jh-li/scratch/g16/Gau-1179679.EIn"
         output file      "/home/jh-li/scratch/g16/Gau-1179679.EOu"
         message file     "/home/jh-li/scratch/g16/Gau-1179679.EMs"
         fchk file        "/home/jh-li/scratch/g16/Gau-1179679.EFC"
         mat. el file     "/home/jh-li/scratch/g16/Gau-1179679.EUF"
 initialization done
 Recovered energy= -56.9736992549     dipole=      0.000000000000      0.000000000000      0.000000000000
 NRF= 0 NRA=   0 NVA=   0 HaveQM=F NVQ=       0
 Convergence limit is  0.750E-04 MaxStp= 10000 StMxLn= 3.00D-04 StpMin= 1.00D-06.
 Convergence criteria             0.00011250 0.00007500 0.00045000 0.00030000
  Step  NS  ND Rises OKQ   Scale  Max. Force  RMS Force Max. Disp.  RMS Disp.     Energy   Flag
     1   0   0   F    T  1.00D+00 0.00000000 0.00000000 0.00000000 0.00000000  -56.9736993 ====
 Running external command "python3 -u ../pes/h4n_anion_pes.py R"
         input file       "/home/jh-li/scratch/g16/Gau-1179679.EIn"
         output file      "/home/jh-li/scratch/g16/Gau-1179679.EOu"
         message file     "/home/jh-li/scratch/g16/Gau-1179679.EMs"
         fchk file        "/home/jh-li/scratch/g16/Gau-1179679.EFC"
         mat. el file     "/home/jh-li/scratch/g16/Gau-1179679.EUF"
 initialization done
 Recovered energy= -56.9736992549     dipole=      0.000000000000      0.000000000000      0.000000000000
 Energy=    -56.9736993     NIter=   0.
 Dipole moment=       0.000000       0.000000       0.000000
 Leave Link  402 at Tue Apr  9 22:12:26 2024, MaxMem=   104857600 cpu:               0.1 elap:               0.5
 (Enter /opt/g16/l601.exe)
 Leave Link  601 at Tue Apr  9 22:12:26 2024, MaxMem=   104857600 cpu:               0.0 elap:               0.0
 (Enter /opt/g16/l716.exe)
 Dipole        = 0.00000000D+00 0.00000000D+00 0.00000000D+00
 -------------------------------------------------------------------
 Center     Atomic                   Forces (Hartrees/Bohr)
 Number     Number              X              Y              Z
 -------------------------------------------------------------------
      1        1           0.000007124    0.000011234    0.000033002
      2        1          -0.000033358   -0.000018212    0.000033442
      3        1          -0.000039003    0.000030392    0.000033981
      4        1           0.000000321   -0.000000293    0.000044778
      5        7           0.000070940   -0.000025327   -0.000158987
 -------------------------------------------------------------------
 Cartesian Forces:  Max     0.000158987 RMS     0.000051887
 Force constants in Cartesian coordinates: 
                1             2             3             4             5 
      1  0.362317D+00
      2  0.362459D-01  0.579278D-01
      3  0.110360D+00  0.129485D-01  0.599832D-01
      4 -0.703797D-02 -0.308731D-01  0.164039D-01  0.102510D+00
      5  0.886776D-02 -0.478145D-03  0.318960D-02  0.113611D+00  0.317527D+00
      6 -0.774310D-02 -0.148093D-01  0.221766D-02 -0.438947D-01 -0.102038D+00
      7 -0.116499D-01  0.282097D-01  0.166996D-01  0.740723D-02 -0.172061D-01
      8 -0.115276D-01  0.412959D-02  0.700900D-03  0.225296D-01 -0.149329D-01
      9 -0.109664D-01  0.126115D-01  0.221886D-02 -0.895484D-02  0.141118D-01
     10  0.719471D-02  0.993365D-03 -0.176600D-02  0.822160D-04  0.311361D-02
     11  0.993568D-03 -0.114174D-02 -0.207553D-03  0.311331D-02  0.597080D-02
     12 -0.158323D-01 -0.185996D-02 -0.781603D-03  0.630412D-02  0.146410D-01
     13 -0.350826D+00 -0.345779D-01 -0.141705D+00 -0.102956D+00 -0.108383D+00
     14 -0.345783D-01 -0.604351D-01 -0.166310D-01 -0.108386D+00 -0.308084D+00
     15 -0.758413D-01 -0.889343D-02 -0.636327D-01  0.301508D-01  0.701175D-01
                6             7             8             9            10 
      6  0.599851D-01
      7 -0.544163D-02  0.165240D+00
      8 -0.158046D-01 -0.149855D+00  0.254607D+00
      9  0.221916D-02 -0.663623D-01  0.890640D-01  0.600013D-01
     10  0.703252D-03  0.180286D-02 -0.410718D-02  0.106189D-02  0.381724D-02
     11  0.163302D-02 -0.410708D-02  0.425085D-02 -0.142455D-02  0.000000D+00
     12 -0.781671D-03  0.952702D-02 -0.127810D-01 -0.781685D-03  0.000000D+00
     13  0.563754D-01 -0.162792D+00  0.142959D+00  0.852219D-01 -0.128933D-01
     14  0.131025D+00  0.142962D+00 -0.248049D+00 -0.114366D+00  0.000000D+00
     15 -0.636348D-01  0.455914D-01 -0.611982D-01 -0.636522D-01  0.000000D+00
               11            12            13            14            15 
     11  0.381714D-02
     12  0.000000D+00 -0.585119D-01
     13  0.000000D+00  0.179783D-05  0.629453D+00
     14 -0.128933D-01  0.000000D+00  0.193083D-05  0.629447D+00
     15 -0.101775D-05  0.607845D-01  0.105982D-03 -0.277892D-04  0.130191D+00
 Leave Link  716 at Tue Apr  9 22:12:26 2024, MaxMem=   104857600 cpu:               0.0 elap:               0.0
 (Enter /opt/g16/l123.exe)
 IRC-IRC-IRC-IRC-IRC-IRC-IRC-IRC-IRC-IRC-IRC-IRC-IRC-IRC-IRC-IRC-IRC-IRC
          ******** Start new reaction path calculation ********
 Current Structure is TS -> form Hessian eigenvectors.
                            Diagonalizing Hessian.
 Supplied step size of   0.0300 bohr.
    Integration on MW PES will use step size of   0.0308 sqrt(amu)*bohr.
 Point Number:   0          Path Number:   1
 Calculating another point on the path.
 Point Number  1 in FORWARD path direction.
 Using LQA Reaction Path Following.
 IRC-IRC-IRC-IRC-IRC-IRC-IRC-IRC-IRC-IRC-IRC-IRC-IRC-IRC-IRC-IRC-IRC-IRC
 Leave Link  123 at Tue Apr  9 22:12:26 2024, MaxMem=   104857600 cpu:               0.0 elap:               0.0
 (Enter /opt/g16/l202.exe)
                          Input orientation:                          
 ---------------------------------------------------------------------
 Center     Atomic      Atomic             Coordinates (Angstroms)
 Number     Number       Type             X           Y           Z
 ---------------------------------------------------------------------
      1          1           0       -0.953809   -0.112062   -0.388547
      2          1           0        0.379826    0.882063   -0.388557
      3          1           0        0.573950   -0.769957   -0.388635
      4          1           0        0.000028   -0.000028    1.488701
      5          7           0        0.000000   -0.000001   -0.023244
 ---------------------------------------------------------------------
                    Distance matrix (angstroms):
                    1          2          3          4          5
     1  H    0.000000
     2  H    1.663390   0.000000
     3  H    1.663392   1.663386   0.000000
     4  H    2.108653   2.108656   2.108689   0.000000
     5  N    1.027500   1.027501   1.027502   1.511945   0.000000
 Symmetry turned off by external request.
 Stoichiometry    H4N(1-)
 Framework group  C1[X(H4N)]
 Deg. of freedom     9
 Full point group                 C1      NOp   1
 Rotational constants (GHZ):         181.2359215         123.5066418         123.5062904
 Leave Link  202 at Tue Apr  9 22:12:26 2024, MaxMem=   104857600 cpu:               0.0 elap:               0.0
 (Enter /opt/g16/l301.exe)
 Standard basis: STO-3G (5D, 7F)
 Ernie: Thresh=  0.10000D-02 Tol=  0.10000D-05 Strict=F.
     9 basis functions,    27 primitive gaussians,     9 cartesian basis functions
     6 alpha electrons        6 beta electrons
       nuclear repulsion energy        14.9725305737 Hartrees.
 IExCor=    0 DFT=F Ex=HF Corr=None ExCW=0 ScaHFX=  1.000000
 ScaDFX=  1.000000  1.000000  1.000000  1.000000 ScalE2=  1.000000  1.000000
 IRadAn=      5 IRanWt=     -1 IRanGd=            0 ICorTp=0 IEmpDi=  4
 NAtoms=    5 NActive=    5 NUniq=    5 SFac= 1.00D+00 NAtFMM=   60 NAOKFM=F Big=F
 Integral buffers will be    131072 words long.
 Raffenetti 1 integral format.
 Two-electron integral symmetry is turned off.
 Leave Link  301 at Tue Apr  9 22:12:26 2024, MaxMem=   104857600 cpu:               0.0 elap:               0.0
 (Enter /opt/g16/l402.exe)
 External calculation of energy, first and second derivatives.
 Running external command "python3 -u ../pes/h4n_anion_pes.py R"
         input file       "/home/jh-li/scratch/g16/Gau-1179679.EIn"
         output file      "/home/jh-li/scratch/g16/Gau-1179679.EOu"
         message file     "/home/jh-li/scratch/g16/Gau-1179679.EMs"
         fchk file        "/home/jh-li/scratch/g16/Gau-1179679.EFC"
         mat. el file     "/home/jh-li/scratch/g16/Gau-1179679.EUF"
 initialization done
 Recovered energy= -56.9737286216     dipole=      0.000000000000      0.000000000000      0.000000000000
 NRF= 0 NRA=   0 NVA=   0 HaveQM=F NVQ=       0
 Convergence limit is  0.750E-04 MaxStp= 10000 StMxLn= 3.00D-04 StpMin= 1.00D-06.
 Convergence criteria             0.00011250 0.00007500 0.00045000 0.00030000
  Step  NS  ND Rises OKQ   Scale  Max. Force  RMS Force Max. Disp.  RMS Disp.     Energy   Flag
     1   0   0   F    T  1.00D+00 0.00000000 0.00000000 0.00000000 0.00000000  -56.9737286 ====
 Running external command "python3 -u ../pes/h4n_anion_pes.py R"
         input file       "/home/jh-li/scratch/g16/Gau-1179679.EIn"
         output file      "/home/jh-li/scratch/g16/Gau-1179679.EOu"
         message file     "/home/jh-li/scratch/g16/Gau-1179679.EMs"
         fchk file        "/home/jh-li/scratch/g16/Gau-1179679.EFC"
         mat. el file     "/home/jh-li/scratch/g16/Gau-1179679.EUF"
 initialization done
 Recovered energy= -56.9737286216     dipole=      0.000000000000      0.000000000000      0.000000000000
 Energy=    -56.9737286     NIter=   0.
 Dipole moment=       0.000000       0.000000       0.000000
 Leave Link  402 at Tue Apr  9 22:12:27 2024, MaxMem=   104857600 cpu:               0.1 elap:               0.5
 (Enter /opt/g16/l716.exe)
 Dipole        = 0.00000000D+00 0.00000000D+00 0.00000000D+00
 -------------------------------------------------------------------
 Center     Atomic                   Forces (Hartrees/Bohr)
 Number     Number              X              Y              Z
 -------------------------------------------------------------------
      1        1          -0.000080310    0.000000931    0.000131408
      2        1           0.000001495    0.000062573    0.000131899
      3        1           0.000013587   -0.000040106    0.000132516
      4        1           0.000000309   -0.000000284   -0.001999118
      5        7           0.000070959   -0.000025326    0.001587221
 -------------------------------------------------------------------
 Cartesian Forces:  Max     0.001999118 RMS     0.000662611
 Force constants in Cartesian coordinates: 
                1             2             3             4             5 
      1  0.360437D+00
      2  0.360566D-01  0.576395D-01
      3  0.109386D+00  0.128342D-01  0.601511D-01
      4 -0.691737D-02 -0.306994D-01  0.163161D-01  0.101989D+00
      5  0.880751D-02 -0.391450D-03  0.300884D-02  0.113017D+00  0.315881D+00
      6 -0.754472D-02 -0.147768D-01  0.236632D-02 -0.435071D-01 -0.101138D+00
      7 -0.115054D-01  0.280496D-01  0.165721D-01  0.745324D-02 -0.171028D-01
      8 -0.114536D-01  0.419249D-02  0.856344D-03  0.223989D-01 -0.147714D-01
      9 -0.107657D-01  0.126258D-01  0.236753D-02 -0.902582D-02  0.139236D-01
     10  0.757717D-02  0.104660D-02 -0.212389D-02  0.835521D-04  0.328042D-02
     11  0.104679D-02 -0.120599D-02 -0.249606D-03  0.328012D-02  0.628768D-02
     12 -0.167477D-01 -0.196744D-02 -0.688841D-03  0.666845D-02  0.154875D-01
     13 -0.349594D+00 -0.344557D-01 -0.140158D+00 -0.102603D+00 -0.108000D+00
     14 -0.344559D-01 -0.602320D-01 -0.164492D-01 -0.108002D+00 -0.307004D+00
     15 -0.743478D-01 -0.871813D-02 -0.641912D-01  0.295565D-01  0.687364D-01
                6             7             8             9            10 
      6  0.601530D-01
      7 -0.555421D-02  0.164390D+00
      8 -0.156380D-01 -0.149072D+00  0.253290D+00
      9  0.236783D-02 -0.657762D-01  0.882776D-01  0.601689D-01
     10  0.845777D-03  0.189640D-02 -0.432723D-02  0.127721D-02  0.503406D-02
     11  0.196398D-02 -0.432714D-02  0.447558D-02 -0.171341D-02  0.000000D+00
     12 -0.688910D-03  0.100776D-01 -0.135198D-01 -0.688840D-03  0.000000D+00
     13  0.557592D-01 -0.162227D+00  0.142453D+00  0.842905D-01 -0.145876D-01
     14  0.129594D+00  0.142456D+00 -0.247181D+00 -0.113116D+00  0.000000D+00
     15 -0.641933D-01  0.446929D-01 -0.599924D-01 -0.642105D-01  0.114267D-05
               11            12            13            14            15 
     11  0.503395D-02
     12  0.000000D+00 -0.676161D-01
     13  0.000000D+00  0.318369D-05  0.628997D+00
     14 -0.145877D-01  0.000000D+00  0.220462D-05  0.628990D+00
     15 -0.116594D-05  0.696167D-01  0.104947D-03 -0.274962D-04  0.123029D+00
 Leave Link  716 at Tue Apr  9 22:12:27 2024, MaxMem=   104857600 cpu:               0.0 elap:               0.0
 (Enter /opt/g16/l123.exe)
 IRC-IRC-IRC-IRC-IRC-IRC-IRC-IRC-IRC-IRC-IRC-IRC-IRC-IRC-IRC-IRC-IRC-IRC
 Pt  1 Step number   1 out of a maximum of  10
 Using modified Bulirsch-Stoer corrector integration.
   Using distance weighted interpolants to fit PES.
 PreDWI: IReCr0= 2 IReCr1= 1 IReCr2= 1 IReCr3= 1
 Modified Bulirsch-Stoer Extrapolation Cycles:
    EPS =    0.000010000000000
    Cycle     1 NS=    48
      PEZero:  N= 2 I= 1 D=  8.03D-05 Err=  2.34D-04
    Cycle     2 NS=    64 Truncation Error =  0.000233898
      PEZero:  N= 3 I= 2 D=  8.03D-05 Err=  1.56D-04
      PEZero:  N= 3 I= 1 D=  1.61D-04 Err=  1.14D-08
    Cycle     3 NS=    96 Truncation Error =  0.000000011
 BS completed in    3 cycles and     208 integration steps.
 Maximum DWI energy   std dev =  0.000000125 at pt     2
 Maximum DWI gradient std dev =  0.007502045 at pt     1
 SUMMARY OF CORRECTOR INTEGRATION:
   Predictor End Point Energy =   -56.973729
   Old End Point Energy       =   -56.973729
   Corrected End Point Energy =   -56.973729
   Predictor End-Start Dist.  =     0.030817
   Old End-Start Dist.        =     0.030817
   New End-Start Dist.        =     0.030809
   New End-Old End Dist.      =     0.000525
 CORRECTOR INTEGRATION CONVERGENCE:
   Recorrection delta-x convergence threshold:    0.010000
   Delta-x Convergence Met
 Point Number:   1          Path Number:   1
                    CURRENT STRUCTURE
                Cartesian Coordinates (Ang):                
 ---------------------------------------------------------------------
 Center     Atomic                     Coordinates (Angstroms)
 Number     Number                        X           Y           Z
 ---------------------------------------------------------------------
      1          1                   -0.953844   -0.112026   -0.388392
      2          1                    0.379742    0.882099   -0.388440
      3          1                    0.573894   -0.769968   -0.388548
      4          1                    0.000023   -0.000028    1.488701
      5          7                    0.000015   -0.000006   -0.023275
 ---------------------------------------------------------------------
   CHANGE IN THE REACTION COORDINATE =    0.03081
   NET REACTION COORDINATE UP TO THIS POINT =    0.03081
  # OF POINTS ALONG THE PATH =   1
  # OF STEPS =   1

 Calculating another point on the path.
 Point Number  2 in FORWARD path direction.
 Using LQA Reaction Path Following.
   LQA: T_Est iteration completed in    3 iterations.
 IRC-IRC-IRC-IRC-IRC-IRC-IRC-IRC-IRC-IRC-IRC-IRC-IRC-IRC-IRC-IRC-IRC-IRC
 Leave Link  123 at Tue Apr  9 22:12:27 2024, MaxMem=   104857600 cpu:               0.0 elap:               0.0
 (Enter /opt/g16/l202.exe)
                          Input orientation:                          
 ---------------------------------------------------------------------
 Center     Atomic      Atomic             Coordinates (Angstroms)
 Number     Number       Type             X           Y           Z
 ---------------------------------------------------------------------
      1          1           0       -0.954491   -0.112082   -0.387501
      2          1           0        0.379953    0.882701   -0.387605
      3          1           0        0.574248   -0.770484   -0.387758
      4          1           0        0.000032   -0.000032    1.472955
      5          7           0        0.000023   -0.000009   -0.022329
 ---------------------------------------------------------------------
                    Distance matrix (angstroms):
                    1          2          3          4          5
     1  H    0.000000
     2  H    1.664433   0.000000
     3  H    1.664493   1.664563   0.000000
     4  H    2.094031   2.094097   2.094177   0.000000
     5  N    1.028109   1.028081   1.028059   1.495284   0.000000
 Symmetry turned off by external request.
 Stoichiometry    H4N(1-)
 Framework group  C1[X(H4N)]
 Deg. of freedom     9
 Full point group                 C1      NOp   1
 Rotational constants (GHZ):         180.9949299         124.9755815         124.9677716
 Leave Link  202 at Tue Apr  9 22:12:27 2024, MaxMem=   104857600 cpu:               0.0 elap:               0.0
 (Enter /opt/g16/l301.exe)
 Standard basis: STO-3G (5D, 7F)
 Ernie: Thresh=  0.10000D-02 Tol=  0.10000D-05 Strict=F.
     9 basis functions,    27 primitive gaussians,     9 cartesian basis functions
     6 alpha electrons        6 beta electrons
       nuclear repulsion energy        14.9983079379 Hartrees.
 IExCor=    0 DFT=F Ex=HF Corr=None ExCW=0 ScaHFX=  1.000000
 ScaDFX=  1.000000  1.000000  1.000000  1.000000 ScalE2=  1.000000  1.000000
 IRadAn=      5 IRanWt=     -1 IRanGd=            0 ICorTp=0 IEmpDi=  4
 NAtoms=    5 NActive=    5 NUniq=    5 SFac= 1.00D+00 NAtFMM=   60 NAOKFM=F Big=F
 Integral buffers will be    131072 words long.
 Raffenetti 1 integral format.
 Two-electron integral symmetry is turned off.
 Leave Link  301 at Tue Apr  9 22:12:27 2024, MaxMem=   104857600 cpu:               0.0 elap:               0.0
 (Enter /opt/g16/l402.exe)
 External calculation of energy, first and second derivatives.
 Running external command "python3 -u ../pes/h4n_anion_pes.py R"
         input file       "/home/jh-li/scratch/g16/Gau-1179679.EIn"
         output file      "/home/jh-li/scratch/g16/Gau-1179679.EOu"
         message file     "/home/jh-li/scratch/g16/Gau-1179679.EMs"
         fchk file        "/home/jh-li/scratch/g16/Gau-1179679.EFC"
         mat. el file     "/home/jh-li/scratch/g16/Gau-1179679.EUF"
 initialization done
 Recovered energy= -56.9738273497     dipole=      0.000000000000      0.000000000000      0.000000000000
 NRF= 0 NRA=   0 NVA=   0 HaveQM=F NVQ=       0
 Convergence limit is  0.750E-04 MaxStp= 10000 StMxLn= 3.00D-04 StpMin= 1.00D-06.
 Convergence criteria             0.00011250 0.00007500 0.00045000 0.00030000
  Step  NS  ND Rises OKQ   Scale  Max. Force  RMS Force Max. Disp.  RMS Disp.     Energy   Flag
     1   0   0   F    T  1.00D+00 0.00000000 0.00000000 0.00000000 0.00000000  -56.9738273 ====
 Running external command "python3 -u ../pes/h4n_anion_pes.py R"
         input file       "/home/jh-li/scratch/g16/Gau-1179679.EIn"
         output file      "/home/jh-li/scratch/g16/Gau-1179679.EOu"
         message file     "/home/jh-li/scratch/g16/Gau-1179679.EMs"
         fchk file        "/home/jh-li/scratch/g16/Gau-1179679.EFC"
         mat. el file     "/home/jh-li/scratch/g16/Gau-1179679.EUF"
 initialization done
 Recovered energy= -56.9738273497     dipole=      0.000000000000      0.000000000000      0.000000000000
 Energy=    -56.9738273     NIter=   0.
 Dipole moment=       0.000000       0.000000       0.000000
 Leave Link  402 at Tue Apr  9 22:12:27 2024, MaxMem=   104857600 cpu:               0.1 elap:               0.5
 (Enter /opt/g16/l716.exe)
 Dipole        = 0.00000000D+00 0.00000000D+00 0.00000000D+00
 -------------------------------------------------------------------
 Center     Atomic                   Forces (Hartrees/Bohr)
 Number     Number              X              Y              Z
 -------------------------------------------------------------------
      1        1          -0.000183529   -0.000018571    0.000227399
      2        1           0.000065665    0.000169544    0.000216536
      3        1           0.000104246   -0.000146156    0.000207968
      4        1           0.000002093   -0.000000894   -0.004339351
      5        7           0.000017606   -0.000006150    0.003669408
 -------------------------------------------------------------------
 Cartesian Forces:  Max     0.004339351 RMS     0.001472776
 Force constants in Cartesian coordinates: 
                1             2             3             4             5 
      1  0.358675D+00
      2  0.358641D-01  0.573513D-01
      3  0.108374D+00  0.127116D-01  0.603287D-01
      4 -0.680375D-02 -0.305348D-01  0.162210D-01  0.101455D+00
      5  0.872746D-02 -0.304292D-03  0.280210D-02  0.112458D+00  0.314391D+00
      6 -0.731799D-02 -0.147410D-01  0.251443D-02 -0.431216D-01 -0.100263D+00
      7 -0.113652D-01  0.278906D-01  0.164374D-01  0.750992D-02 -0.169898D-01
      8 -0.113651D-01  0.426296D-02  0.103699D-02  0.222606D-01 -0.146047D-01
      9 -0.105379D-01  0.126462D-01  0.251522D-02 -0.911579D-02  0.137163D-01
     10  0.796475D-02  0.110137D-02 -0.254328D-02  0.754971D-04  0.345268D-02
     11  0.110161D-02 -0.128127D-02 -0.299019D-03  0.345231D-02  0.660766D-02
     12 -0.175780D-01 -0.206323D-02 -0.547180D-03  0.699671D-02  0.162599D-01
     13 -0.348474D+00 -0.343236D-01 -0.138497D+00 -0.102231D+00 -0.107645D+00
     14 -0.343266D-01 -0.600260D-01 -0.162511D-01 -0.107641D+00 -0.306088D+00
     15 -0.729553D-01 -0.855533D-02 -0.648065D-01  0.290256D-01  0.674990D-01
                6             7             8             9            10 
      6  0.603545D-01
      7 -0.569113D-02  0.163573D+00
      8 -0.154600D-01 -0.148383D+00  0.252105D+00
      9  0.251497D-02 -0.652320D-01  0.875553D-01  0.603894D-01
     10  0.101225D-02  0.198386D-02 -0.455510D-02  0.152753D-02  0.643841D-02
     11  0.234984D-02 -0.455497D-02  0.469985D-02 -0.204894D-02  0.000000D+00
     12 -0.543855D-03  0.105789D-01 -0.141960D-01 -0.541099D-03  0.614353D-05
     13  0.551171D-01 -0.161693D+00  0.142042D+00  0.833578D-01 -0.164592D-01
     14  0.128120D+00  0.142041D+00 -0.246458D+00 -0.111872D+00  0.000000D+00
     15 -0.648353D-01  0.439158D-01 -0.589483D-01 -0.648737D-01 -0.264138D-05
               11            12            13            14            15 
     11  0.643789D-02
     12 -0.183710D-05 -0.770531D-01
     13  0.000000D+00 -0.196264D-05  0.628844D+00
     14 -0.164608D-01  0.000000D+00 -0.736785D-04  0.629019D+00
     15  0.000000D+00  0.786316D-01  0.242455D-04  0.184608D-05  0.115923D+00
 Leave Link  716 at Tue Apr  9 22:12:27 2024, MaxMem=   104857600 cpu:               0.0 elap:               0.0
 (Enter /opt/g16/l123.exe)
 IRC-IRC-IRC-IRC-IRC-IRC-IRC-IRC-IRC-IRC-IRC-IRC-IRC-IRC-IRC-IRC-IRC-IRC
 Pt  2 Step number   1 out of a maximum of  10
 Using modified Bulirsch-Stoer corrector integration.
   Using distance weighted interpolants to fit PES.
 PreDWI: IReCr0= 2 IReCr1= 1 IReCr2= 1 IReCr3= 1
 Modified Bulirsch-Stoer Extrapolation Cycles:
    EPS =    0.000010000000000
    Cycle     1 NS=    48
      PEZero:  N= 2 I= 1 D=  1.60D-04 Err=  1.77D-06
    Cycle     2 NS=    64 Truncation Error =  0.000001769
 BS completed in    2 cycles and     112 integration steps.
 Maximum DWI energy   std dev =  0.000000160 at pt    32
 Maximum DWI gradient std dev =  0.001002243 at pt    14
 SUMMARY OF CORRECTOR INTEGRATION:
   Predictor End Point Energy =   -56.973827
   Old End Point Energy       =   -56.973827
   Corrected End Point Energy =   -56.973827
   Predictor End-Start Dist.  =     0.030806
   Old End-Start Dist.        =     0.030806
   New End-Start Dist.        =     0.030806
   New End-Old End Dist.      =     0.000023
 CORRECTOR INTEGRATION CONVERGENCE:
   Recorrection delta-x convergence threshold:    0.010000
   Delta-x Convergence Met
 Point Number:   2          Path Number:   1
                    CURRENT STRUCTURE
                Cartesian Coordinates (Ang):                
 ---------------------------------------------------------------------
 Center     Atomic                     Coordinates (Angstroms)
 Number     Number                        X           Y           Z
 ---------------------------------------------------------------------
      1          1                   -0.954497   -0.112083   -0.387505
      2          1                    0.379955    0.882706   -0.387609
      3          1                    0.574251   -0.770489   -0.387762
      4          1                    0.000032   -0.000032    1.472956
      5          7                    0.000023   -0.000009   -0.022329
 ---------------------------------------------------------------------
   CHANGE IN THE REACTION COORDINATE =    0.03081
   NET REACTION COORDINATE UP TO THIS POINT =    0.06161
  # OF POINTS ALONG THE PATH =   2
  # OF STEPS =   1

 Calculating another point on the path.
 Point Number  3 in FORWARD path direction.
 Using LQA Reaction Path Following.
   LQA: T_Est iteration completed in    3 iterations.
 IRC-IRC-IRC-IRC-IRC-IRC-IRC-IRC-IRC-IRC-IRC-IRC-IRC-IRC-IRC-IRC-IRC-IRC
 Leave Link  123 at Tue Apr  9 22:12:27 2024, MaxMem=   104857600 cpu:               0.0 elap:               0.0
 (Enter /opt/g16/l202.exe)
                          Input orientation:                          
 ---------------------------------------------------------------------
 Center     Atomic      Atomic             Coordinates (Angstroms)
 Number     Number       Type             X           Y           Z
 ---------------------------------------------------------------------
      1          1           0       -0.955139   -0.112151   -0.386697
      2          1           0        0.380192    0.883299   -0.386832
      3          1           0        0.574621   -0.771001   -0.387010
      4          1           0        0.000038   -0.000034    1.457213
      5          7           0        0.000026   -0.000010   -0.021368
 ---------------------------------------------------------------------
                    Distance matrix (angstroms):
                    1          2          3          4          5
     1  H    0.000000
     2  H    1.665542   0.000000
     3  H    1.665609   1.665687   0.000000
     4  H    2.079648   2.079735   2.079830   0.000000
     5  N    1.028777   1.028750   1.028728   1.478581   0.000000
 Symmetry turned off by external request.
 Stoichiometry    H4N(1-)
 Framework group  C1[X(H4N)]
 Deg. of freedom     9
 Full point group                 C1      NOp   1
 Rotational constants (GHZ):         180.7524143         126.4462792         126.4373764
 Leave Link  202 at Tue Apr  9 22:12:27 2024, MaxMem=   104857600 cpu:               0.0 elap:               0.0
 (Enter /opt/g16/l301.exe)
 Standard basis: STO-3G (5D, 7F)
 Ernie: Thresh=  0.10000D-02 Tol=  0.10000D-05 Strict=F.
     9 basis functions,    27 primitive gaussians,     9 cartesian basis functions
     6 alpha electrons        6 beta electrons
       nuclear repulsion energy        15.0238661669 Hartrees.
 IExCor=    0 DFT=F Ex=HF Corr=None ExCW=0 ScaHFX=  1.000000
 ScaDFX=  1.000000  1.000000  1.000000  1.000000 ScalE2=  1.000000  1.000000
 IRadAn=      5 IRanWt=     -1 IRanGd=            0 ICorTp=0 IEmpDi=  4
 NAtoms=    5 NActive=    5 NUniq=    5 SFac= 1.00D+00 NAtFMM=   60 NAOKFM=F Big=F
 Integral buffers will be    131072 words long.
 Raffenetti 1 integral format.
 Two-electron integral symmetry is turned off.
 Leave Link  301 at Tue Apr  9 22:12:27 2024, MaxMem=   104857600 cpu:               0.1 elap:               0.1
 (Enter /opt/g16/l402.exe)
 External calculation of energy, first and second derivatives.
 Running external command "python3 -u ../pes/h4n_anion_pes.py R"
         input file       "/home/jh-li/scratch/g16/Gau-1179679.EIn"
         output file      "/home/jh-li/scratch/g16/Gau-1179679.EOu"
         message file     "/home/jh-li/scratch/g16/Gau-1179679.EMs"
         fchk file        "/home/jh-li/scratch/g16/Gau-1179679.EFC"
         mat. el file     "/home/jh-li/scratch/g16/Gau-1179679.EUF"
 initialization done
 Recovered energy= -56.9740051636     dipole=      0.000000000000      0.000000000000      0.000000000000
 NRF= 0 NRA=   0 NVA=   0 HaveQM=F NVQ=       0
 Convergence limit is  0.750E-04 MaxStp= 10000 StMxLn= 3.00D-04 StpMin= 1.00D-06.
 Convergence criteria             0.00011250 0.00007500 0.00045000 0.00030000
  Step  NS  ND Rises OKQ   Scale  Max. Force  RMS Force Max. Disp.  RMS Disp.     Energy   Flag
     1   0   0   F    T  1.00D+00 0.00000000 0.00000000 0.00000000 0.00000000  -56.9740052 ====
 Running external command "python3 -u ../pes/h4n_anion_pes.py R"
         input file       "/home/jh-li/scratch/g16/Gau-1179679.EIn"
         output file      "/home/jh-li/scratch/g16/Gau-1179679.EOu"
         message file     "/home/jh-li/scratch/g16/Gau-1179679.EMs"
         fchk file        "/home/jh-li/scratch/g16/Gau-1179679.EFC"
         mat. el file     "/home/jh-li/scratch/g16/Gau-1179679.EUF"
 initialization done
 Recovered energy= -56.9740051636     dipole=      0.000000000000      0.000000000000      0.000000000000
 Energy=    -56.9740052     NIter=   0.
 Dipole moment=       0.000000       0.000000       0.000000
 Leave Link  402 at Tue Apr  9 22:12:28 2024, MaxMem=   104857600 cpu:               0.0 elap:               0.5
 (Enter /opt/g16/l716.exe)
 Dipole        = 0.00000000D+00 0.00000000D+00 0.00000000D+00
 -------------------------------------------------------------------
 Center     Atomic                   Forces (Hartrees/Bohr)
 Number     Number              X              Y              Z
 -------------------------------------------------------------------
      1        1          -0.000289111   -0.000031539    0.000346690
      2        1           0.000108914    0.000266788    0.000336008
      3        1           0.000168455   -0.000231115    0.000327610
      4        1           0.000002676   -0.000001080   -0.006983200
      5        7           0.000015186   -0.000005295    0.005953350
 -------------------------------------------------------------------
 Cartesian Forces:  Max     0.006983200 RMS     0.002377640
 Force constants in Cartesian coordinates: 
                1             2             3             4             5 
      1  0.356763D+00
      2  0.356702D-01  0.570500D-01
      3  0.107401D+00  0.125970D-01  0.606321D-01
      4 -0.670653D-02 -0.303609D-01  0.161250D-01  0.100912D+00
      5  0.859600D-02 -0.220377D-03  0.257756D-02  0.111850D+00  0.312711D+00
      6 -0.707494D-02 -0.147122D-01  0.266686D-02 -0.427369D-01 -0.993714D-01
      7 -0.112581D-01  0.277212D-01  0.162928D-01  0.757822D-02 -0.168412D-01
      8 -0.112282D-01  0.433777D-02  0.123328D-02  0.221016D-01 -0.144900D-01
      9 -0.102947D-01  0.126746D-01  0.266800D-02 -0.921314D-02  0.134922D-01
     10  0.836033D-02  0.115867D-02 -0.301653D-02  0.605585D-04  0.363223D-02
     11  0.115883D-02 -0.136673D-02 -0.354644D-03  0.363203D-02  0.693290D-02
     12 -0.181848D-01 -0.213406D-02 -0.361380D-03  0.723752D-02  0.168218D-01
     13 -0.347162D+00 -0.341915D-01 -0.136810D+00 -0.101839D+00 -0.107234D+00
     14 -0.341953D-01 -0.597979D-01 -0.160525D-01 -0.107229D+00 -0.304933D+00
     15 -0.718554D-01 -0.842643D-02 -0.656006D-01  0.285911D-01  0.664881D-01
                6             7             8             9            10 
      6  0.606633D-01
      7 -0.583804D-02  0.162695D+00
      8 -0.152654D-01 -0.147582D+00  0.250755D+00
      9  0.266817D-02 -0.646552D-01  0.867819D-01  0.607023D-01
     10  0.120041D-02  0.206834D-02 -0.479224D-02  0.181139D-02  0.803921D-02
     11  0.278669D-02 -0.479221D-02  0.492589D-02 -0.242972D-02  0.000000D+00
     12 -0.356993D-03  0.109440D-01 -0.146868D-01 -0.353330D-03  0.788974D-05
     13  0.544479D-01 -0.161075D+00  0.141500D+00  0.823510D-01 -0.185254D-01
     14  0.126568D+00  0.141499D+00 -0.245523D+00 -0.110522D+00  0.000000D+00
     15 -0.656363D-01  0.432618D-01 -0.580703D-01 -0.656801D-01 -0.316103D-05
               11            12            13            14            15 
     11  0.803851D-02
     12 -0.232535D-05 -0.860136D-01
     13  0.000000D+00 -0.283250D-05  0.628589D+00
     14 -0.185275D-01  0.000000D+00 -0.757192D-04  0.628769D+00
     15  0.000000D+00  0.870461D-01  0.139666D-04  0.553366D-05  0.109895D+00
 Leave Link  716 at Tue Apr  9 22:12:28 2024, MaxMem=   104857600 cpu:               0.0 elap:               0.0
 (Enter /opt/g16/l123.exe)
 IRC-IRC-IRC-IRC-IRC-IRC-IRC-IRC-IRC-IRC-IRC-IRC-IRC-IRC-IRC-IRC-IRC-IRC
 Pt  3 Step number   1 out of a maximum of  10
 Using modified Bulirsch-Stoer corrector integration.
   Using distance weighted interpolants to fit PES.
 PreDWI: IReCr0= 2 IReCr1= 1 IReCr2= 1 IReCr3= 1
 Modified Bulirsch-Stoer Extrapolation Cycles:
    EPS =    0.000010000000000
    Cycle     1 NS=    48
      PEZero:  N= 2 I= 1 D=  1.60D-04 Err=  6.32D-07
    Cycle     2 NS=    64 Truncation Error =  0.000000632
 BS completed in    2 cycles and     112 integration steps.
 Maximum DWI energy   std dev =  0.000000145 at pt    31
 Maximum DWI gradient std dev =  0.000396866 at pt    44
 SUMMARY OF CORRECTOR INTEGRATION:
   Predictor End Point Energy =   -56.974005
   Old End Point Energy       =   -56.974005
   Corrected End Point Energy =   -56.974005
   Predictor End-Start Dist.  =     0.030808
   Old End-Start Dist.        =     0.030808
   New End-Start Dist.        =     0.030808
   New End-Old End Dist.      =     0.000013
 CORRECTOR INTEGRATION CONVERGENCE:
   Recorrection delta-x convergence threshold:    0.010000
   Delta-x Convergence Met
 Point Number:   3          Path Number:   1
                    CURRENT STRUCTURE
                Cartesian Coordinates (Ang):                
 ---------------------------------------------------------------------
 Center     Atomic                     Coordinates (Angstroms)
 Number     Number                        X           Y           Z
 ---------------------------------------------------------------------
      1          1                   -0.955142   -0.112151   -0.386699
      2          1                    0.380193    0.883302   -0.386835
      3          1                    0.574623   -0.771004   -0.387012
      4          1                    0.000038   -0.000034    1.457213
      5          7                    0.000026   -0.000010   -0.021367
 ---------------------------------------------------------------------
   CHANGE IN THE REACTION COORDINATE =    0.03081
   NET REACTION COORDINATE UP TO THIS POINT =    0.09242
  # OF POINTS ALONG THE PATH =   3
  # OF STEPS =   1

 Calculating another point on the path.
 Point Number  4 in FORWARD path direction.
 Using LQA Reaction Path Following.
   LQA: T_Est iteration completed in    3 iterations.
 IRC-IRC-IRC-IRC-IRC-IRC-IRC-IRC-IRC-IRC-IRC-IRC-IRC-IRC-IRC-IRC-IRC-IRC
 Leave Link  123 at Tue Apr  9 22:12:28 2024, MaxMem=   104857600 cpu:               0.0 elap:               0.0
 (Enter /opt/g16/l202.exe)
                          Input orientation:                          
 ---------------------------------------------------------------------
 Center     Atomic      Atomic             Coordinates (Angstroms)
 Number     Number       Type             X           Y           Z
 ---------------------------------------------------------------------
      1          1           0       -0.955786   -0.112222   -0.385928
      2          1           0        0.380438    0.883896   -0.386083
      3          1           0        0.575001   -0.771519   -0.386276
      4          1           0        0.000044   -0.000037    1.441472
      5          7           0        0.000028   -0.000011   -0.020400
 ---------------------------------------------------------------------
                    Distance matrix (angstroms):
                    1          2          3          4          5
     1  H    0.000000
     2  H    1.666657   0.000000
     3  H    1.666727   1.666809   0.000000
     4  H    2.065330   2.065428   2.065532   0.000000
     5  N    1.029458   1.029431   1.029409   1.461872   0.000000
 Symmetry turned off by external request.
 Stoichiometry    H4N(1-)
 Framework group  C1[X(H4N)]
 Deg. of freedom     9
 Full point group                 C1      NOp   1
 Rotational constants (GHZ):         180.5098465         127.9325489         127.9229863
 Leave Link  202 at Tue Apr  9 22:12:28 2024, MaxMem=   104857600 cpu:               0.0 elap:               0.0
 (Enter /opt/g16/l301.exe)
 Standard basis: STO-3G (5D, 7F)
 Ernie: Thresh=  0.10000D-02 Tol=  0.10000D-05 Strict=F.
     9 basis functions,    27 primitive gaussians,     9 cartesian basis functions
     6 alpha electrons        6 beta electrons
       nuclear repulsion energy        15.0500022058 Hartrees.
 IExCor=    0 DFT=F Ex=HF Corr=None ExCW=0 ScaHFX=  1.000000
 ScaDFX=  1.000000  1.000000  1.000000  1.000000 ScalE2=  1.000000  1.000000
 IRadAn=      5 IRanWt=     -1 IRanGd=            0 ICorTp=0 IEmpDi=  4
 NAtoms=    5 NActive=    5 NUniq=    5 SFac= 1.00D+00 NAtFMM=   60 NAOKFM=F Big=F
 Integral buffers will be    131072 words long.
 Raffenetti 1 integral format.
 Two-electron integral symmetry is turned off.
 Leave Link  301 at Tue Apr  9 22:12:28 2024, MaxMem=   104857600 cpu:               0.0 elap:               0.0
 (Enter /opt/g16/l402.exe)
 External calculation of energy, first and second derivatives.
 Running external command "python3 -u ../pes/h4n_anion_pes.py R"
         input file       "/home/jh-li/scratch/g16/Gau-1179679.EIn"
         output file      "/home/jh-li/scratch/g16/Gau-1179679.EOu"
         message file     "/home/jh-li/scratch/g16/Gau-1179679.EMs"
         fchk file        "/home/jh-li/scratch/g16/Gau-1179679.EFC"
         mat. el file     "/home/jh-li/scratch/g16/Gau-1179679.EUF"
 initialization done
 Recovered energy= -56.9742711457     dipole=      0.000000000000      0.000000000000      0.000000000000
 NRF= 0 NRA=   0 NVA=   0 HaveQM=F NVQ=       0
 Convergence limit is  0.750E-04 MaxStp= 10000 StMxLn= 3.00D-04 StpMin= 1.00D-06.
 Convergence criteria             0.00011250 0.00007500 0.00045000 0.00030000
  Step  NS  ND Rises OKQ   Scale  Max. Force  RMS Force Max. Disp.  RMS Disp.     Energy   Flag
     1   0   0   F    T  1.00D+00 0.00000000 0.00000000 0.00000000 0.00000000  -56.9742711 ====
 Running external command "python3 -u ../pes/h4n_anion_pes.py R"
         input file       "/home/jh-li/scratch/g16/Gau-1179679.EIn"
         output file      "/home/jh-li/scratch/g16/Gau-1179679.EOu"
         message file     "/home/jh-li/scratch/g16/Gau-1179679.EMs"
         fchk file        "/home/jh-li/scratch/g16/Gau-1179679.EFC"
         mat. el file     "/home/jh-li/scratch/g16/Gau-1179679.EUF"
 initialization done
 Recovered energy= -56.9742711457     dipole=      0.000000000000      0.000000000000      0.000000000000
 Energy=    -56.9742711     NIter=   0.
 Dipole moment=       0.000000       0.000000       0.000000
 Leave Link  402 at Tue Apr  9 22:12:29 2024, MaxMem=   104857600 cpu:               0.0 elap:               0.5
 (Enter /opt/g16/l716.exe)
 Dipole        = 0.00000000D+00 0.00000000D+00 0.00000000D+00
 -------------------------------------------------------------------
 Center     Atomic                   Forces (Hartrees/Bohr)
 Number     Number              X              Y              Z
 -------------------------------------------------------------------
      1        1          -0.000405430   -0.000045438    0.000475774
      2        1           0.000155744    0.000374231    0.000465455
      3        1           0.000238772   -0.000324965    0.000457380
      4        1           0.000003184   -0.000001237   -0.009896503
      5        7           0.000013880   -0.000004844    0.008477311
 -------------------------------------------------------------------
 Cartesian Forces:  Max     0.009896503 RMS     0.003375908
 Force constants in Cartesian coordinates: 
                1             2             3             4             5 
      1  0.354835D+00
      2  0.354769D-01  0.567372D-01
      3  0.106434D+00  0.124834D-01  0.610120D-01
      4 -0.662957D-02 -0.301838D-01  0.160268D-01  0.100360D+00
      5  0.840230D-02 -0.138938D-03  0.234130D-02  0.111244D+00  0.311018D+00
      6 -0.682011D-02 -0.146850D-01  0.282093D-02 -0.423539D-01 -0.984823D-01
      7 -0.111840D-01  0.275417D-01  0.161429D-01  0.766536D-02 -0.166532D-01
      8 -0.110363D-01  0.442252D-02  0.144036D-02  0.219174D-01 -0.144178D-01
      9 -0.100404D-01  0.127072D-01  0.282238D-02 -0.931733D-02  0.132583D-01
     10  0.875789D-02  0.121720D-02 -0.355027D-02  0.389633D-04  0.381560D-02
     11  0.121728D-02 -0.146038D-02 -0.417366D-03  0.381557D-02  0.725860D-02
     12 -0.184872D-01 -0.216919D-02 -0.167234D-03  0.735709D-02  0.171017D-01
     13 -0.345785D+00 -0.340545D-01 -0.135062D+00 -0.101429D+00 -0.106806D+00
     14 -0.340586D-01 -0.595575D-01 -0.158469D-01 -0.106799D+00 -0.303720D+00
     15 -0.710903D-01 -0.833682D-02 -0.664822D-01  0.282888D-01  0.657843D-01
                6             7             8             9            10 
      6  0.610463D-01
      7 -0.599372D-02  0.161807D+00
      8 -0.150625D-01 -0.146783D+00  0.249394D+00
      9  0.282291D-02 -0.640788D-01  0.860088D-01  0.610876D-01
     10  0.141272D-02  0.214825D-02 -0.503441D-02  0.213186D-02  0.983350D-02
     11  0.327969D-02 -0.503446D-02  0.515031D-02 -0.285963D-02  0.000000D+00
     12 -0.161810D-03  0.111254D-01 -0.149310D-01 -0.157246D-03  0.926040D-05
     13  0.537534D-01 -0.160429D+00  0.140935D+00  0.813039D-01 -0.207759D-01
     14  0.124956D+00  0.140933D+00 -0.244543D+00 -0.109117D+00  0.120300D-05
     15 -0.665225D-01  0.428063D-01 -0.574585D-01 -0.665698D-01 -0.356836D-05
               11            12            13            14            15 
     11  0.983271D-02
     12 -0.270293D-05 -0.938169D-01
     13  0.120169D-05 -0.307488D-05  0.628406D+00
     14 -0.207785D-01  0.000000D+00 -0.763424D-04  0.628587D+00
     15  0.000000D+00  0.942765D-01  0.775549D-05  0.772513D-05  0.105307D+00
 Leave Link  716 at Tue Apr  9 22:12:29 2024, MaxMem=   104857600 cpu:               0.0 elap:               0.0
 (Enter /opt/g16/l123.exe)
 IRC-IRC-IRC-IRC-IRC-IRC-IRC-IRC-IRC-IRC-IRC-IRC-IRC-IRC-IRC-IRC-IRC-IRC
 Pt  4 Step number   1 out of a maximum of  10
 Using modified Bulirsch-Stoer corrector integration.
   Using distance weighted interpolants to fit PES.
 PreDWI: IReCr0= 2 IReCr1= 1 IReCr2= 1 IReCr3= 1
 Modified Bulirsch-Stoer Extrapolation Cycles:
    EPS =    0.000010000000000
    Cycle     1 NS=    48
      PEZero:  N= 2 I= 1 D=  1.60D-04 Err=  3.57D-07
    Cycle     2 NS=    64 Truncation Error =  0.000000357
 BS completed in    2 cycles and     112 integration steps.
 Maximum DWI energy   std dev =  0.000000134 at pt    31
 Maximum DWI gradient std dev =  0.000165028 at pt    31
 SUMMARY OF CORRECTOR INTEGRATION:
   Predictor End Point Energy =   -56.974271
   Old End Point Energy       =   -56.974271
   Corrected End Point Energy =   -56.974271
   Predictor End-Start Dist.  =     0.030809
   Old End-Start Dist.        =     0.030809
   New End-Start Dist.        =     0.030809
   New End-Old End Dist.      =     0.000006
 CORRECTOR INTEGRATION CONVERGENCE:
   Recorrection delta-x convergence threshold:    0.010000
   Delta-x Convergence Met
 Point Number:   4          Path Number:   1
                    CURRENT STRUCTURE
                Cartesian Coordinates (Ang):                
 ---------------------------------------------------------------------
 Center     Atomic                     Coordinates (Angstroms)
 Number     Number                        X           Y           Z
 ---------------------------------------------------------------------
      1          1                   -0.955787   -0.112222   -0.385929
      2          1                    0.380439    0.883897   -0.386084
      3          1                    0.575001   -0.771520   -0.386277
      4          1                    0.000044   -0.000037    1.441472
      5          7                    0.000028   -0.000011   -0.020399
 ---------------------------------------------------------------------
   CHANGE IN THE REACTION COORDINATE =    0.03081
   NET REACTION COORDINATE UP TO THIS POINT =    0.12323
  # OF POINTS ALONG THE PATH =   4
  # OF STEPS =   1

 Calculating another point on the path.
 Point Number  5 in FORWARD path direction.
 Using LQA Reaction Path Following.
   LQA: T_Est iteration completed in    3 iterations.
 IRC-IRC-IRC-IRC-IRC-IRC-IRC-IRC-IRC-IRC-IRC-IRC-IRC-IRC-IRC-IRC-IRC-IRC
 Leave Link  123 at Tue Apr  9 22:12:29 2024, MaxMem=   104857600 cpu:               0.0 elap:               0.0
 (Enter /opt/g16/l202.exe)
                          Input orientation:                          
 ---------------------------------------------------------------------
 Center     Atomic      Atomic             Coordinates (Angstroms)
 Number     Number       Type             X           Y           Z
 ---------------------------------------------------------------------
      1          1           0       -0.956428   -0.112295   -0.385180
      2          1           0        0.380686    0.884489   -0.385349
      3          1           0        0.575380   -0.772034   -0.385553
      4          1           0        0.000049   -0.000038    1.425732
      5          7           0        0.000030   -0.000011   -0.019427
 ---------------------------------------------------------------------
                    Distance matrix (angstroms):
                    1          2          3          4          5
     1  H    0.000000
     2  H    1.667769   0.000000
     3  H    1.667840   1.667925   0.000000
     4  H    2.051061   2.051168   2.051277   0.000000
     5  N    1.030142   1.030116   1.030095   1.445159   0.000000
 Symmetry turned off by external request.
 Stoichiometry    H4N(1-)
 Framework group  C1[X(H4N)]
 Deg. of freedom     9
 Full point group                 C1      NOp   1
 Rotational constants (GHZ):         180.2689199         129.4356100         129.4255240
 Leave Link  202 at Tue Apr  9 22:12:29 2024, MaxMem=   104857600 cpu:               0.0 elap:               0.0
 (Enter /opt/g16/l301.exe)
 Standard basis: STO-3G (5D, 7F)
 Ernie: Thresh=  0.10000D-02 Tol=  0.10000D-05 Strict=F.
     9 basis functions,    27 primitive gaussians,     9 cartesian basis functions
     6 alpha electrons        6 beta electrons
       nuclear repulsion energy        15.0768330529 Hartrees.
 IExCor=    0 DFT=F Ex=HF Corr=None ExCW=0 ScaHFX=  1.000000
 ScaDFX=  1.000000  1.000000  1.000000  1.000000 ScalE2=  1.000000  1.000000
 IRadAn=      5 IRanWt=     -1 IRanGd=            0 ICorTp=0 IEmpDi=  4
 NAtoms=    5 NActive=    5 NUniq=    5 SFac= 1.00D+00 NAtFMM=   60 NAOKFM=F Big=F
 Integral buffers will be    131072 words long.
 Raffenetti 1 integral format.
 Two-electron integral symmetry is turned off.
 Leave Link  301 at Tue Apr  9 22:12:29 2024, MaxMem=   104857600 cpu:               0.0 elap:               0.0
 (Enter /opt/g16/l402.exe)
 External calculation of energy, first and second derivatives.
 Running external command "python3 -u ../pes/h4n_anion_pes.py R"
         input file       "/home/jh-li/scratch/g16/Gau-1179679.EIn"
         output file      "/home/jh-li/scratch/g16/Gau-1179679.EOu"
         message file     "/home/jh-li/scratch/g16/Gau-1179679.EMs"
         fchk file        "/home/jh-li/scratch/g16/Gau-1179679.EFC"
         mat. el file     "/home/jh-li/scratch/g16/Gau-1179679.EUF"
 initialization done
 Recovered energy= -56.9746331576     dipole=      0.000000000000      0.000000000000      0.000000000000
 NRF= 0 NRA=   0 NVA=   0 HaveQM=F NVQ=       0
 Convergence limit is  0.750E-04 MaxStp= 10000 StMxLn= 3.00D-04 StpMin= 1.00D-06.
 Convergence criteria             0.00011250 0.00007500 0.00045000 0.00030000
  Step  NS  ND Rises OKQ   Scale  Max. Force  RMS Force Max. Disp.  RMS Disp.     Energy   Flag
     1   0   0   F    T  1.00D+00 0.00000000 0.00000000 0.00000000 0.00000000  -56.9746332 ====
 Running external command "python3 -u ../pes/h4n_anion_pes.py R"
         input file       "/home/jh-li/scratch/g16/Gau-1179679.EIn"
         output file      "/home/jh-li/scratch/g16/Gau-1179679.EOu"
         message file     "/home/jh-li/scratch/g16/Gau-1179679.EMs"
         fchk file        "/home/jh-li/scratch/g16/Gau-1179679.EFC"
         mat. el file     "/home/jh-li/scratch/g16/Gau-1179679.EUF"
 initialization done
 Recovered energy= -56.9746331576     dipole=      0.000000000000      0.000000000000      0.000000000000
 Energy=    -56.9746332     NIter=   0.
 Dipole moment=       0.000000       0.000000       0.000000
 Leave Link  402 at Tue Apr  9 22:12:29 2024, MaxMem=   104857600 cpu:               0.0 elap:               0.5
 (Enter /opt/g16/l716.exe)
 Dipole        = 0.00000000D+00 0.00000000D+00 0.00000000D+00
 -------------------------------------------------------------------
 Center     Atomic                   Forces (Hartrees/Bohr)
 Number     Number              X              Y              Z
 -------------------------------------------------------------------
      1        1          -0.000527365   -0.000059891    0.000612580
      2        1           0.000204597    0.000486973    0.000602662
      3        1           0.000312378   -0.000423452    0.000594944
      4        1           0.000003660   -0.000001380   -0.013033669
      5        7           0.000012898   -0.000004508    0.011202214
 -------------------------------------------------------------------
 Cartesian Forces:  Max     0.013033669 RMS     0.004451938
 Force constants in Cartesian coordinates: 
                1             2             3             4             5 
      1  0.352860D+00
      2  0.352800D-01  0.564107D-01
      3  0.105464D+00  0.123693D-01  0.614613D-01
      4 -0.656687D-02 -0.299999D-01  0.159265D-01  0.997901D-01
      5  0.815427D-02 -0.574924D-04  0.209789D-02  0.110626D+00  0.309284D+00
      6 -0.655787D-02 -0.146580D-01  0.297572D-02 -0.419685D-01 -0.975875D-01
      7 -0.111344D-01  0.273498D-01  0.159892D-01  0.776959D-02 -0.164289D-01
      8 -0.107958D-01  0.451724D-02  0.165387D-02  0.217087D-01 -0.143773D-01
      9 -0.977891D-02  0.127417D-01  0.297743D-02 -0.942525D-02  0.130179D-01
     10  0.915456D-02  0.127635D-02 -0.414471D-02  0.120969D-04  0.400093D-02
     11  0.127635D-02 -0.156006D-02 -0.487213D-03  0.400106D-02  0.758265D-02
     12 -0.184890D-01 -0.216907D-02  0.145955D-04  0.735699D-02  0.171034D-01
     13 -0.344319D+00 -0.339089D-01 -0.133243D+00 -0.100999D+00 -0.106350D+00
     14 -0.339132D-01 -0.593073D-01 -0.156330D-01 -0.106343D+00 -0.302431D+00
     15 -0.706375D-01 -0.828383D-02 -0.674219D-01  0.281101D-01  0.653681D-01
                6             7             8             9            10 
      6  0.614976D-01
      7 -0.615446D-02  0.160896D+00
      8 -0.148541D-01 -0.145968D+00  0.247998D+00
      9  0.297826D-02 -0.634979D-01  0.852296D-01  0.615402D-01
     10  0.164922D-02  0.222394D-02 -0.527913D-02  0.248897D-02  0.118110D-01
     11  0.382893D-02 -0.527926D-02  0.537200D-02 -0.333871D-02  0.000000D+00
     12  0.210648D-04  0.111258D-01 -0.149322D-01  0.265459D-04  0.104303D-04
     13  0.530298D-01 -0.159747D+00  0.140334D+00  0.802122D-01 -0.231993D-01
     14  0.123276D+00  0.140331D+00 -0.243505D+00 -0.107653D+00  0.143463D-05
     15 -0.674655D-01  0.425371D-01 -0.570969D-01 -0.675153D-01 -0.390505D-05
               11            12            13            14            15 
     11  0.118102D-01
     12 -0.302532D-05 -0.100092D+00
     13  0.143404D-05 -0.300720D-05  0.628253D+00
     14 -0.232025D-01  0.000000D+00 -0.767150D-04  0.628435D+00
     15  0.000000D+00  0.100011D+00  0.358278D-05  0.916171D-05  0.102388D+00
 Leave Link  716 at Tue Apr  9 22:12:29 2024, MaxMem=   104857600 cpu:               0.0 elap:               0.0
 (Enter /opt/g16/l123.exe)
 IRC-IRC-IRC-IRC-IRC-IRC-IRC-IRC-IRC-IRC-IRC-IRC-IRC-IRC-IRC-IRC-IRC-IRC
 Pt  5 Step number   1 out of a maximum of  10
 Using modified Bulirsch-Stoer corrector integration.
   Using distance weighted interpolants to fit PES.
 PreDWI: IReCr0= 2 IReCr1= 1 IReCr2= 1 IReCr3= 1
 Modified Bulirsch-Stoer Extrapolation Cycles:
    EPS =    0.000010000000000
    Cycle     1 NS=    48
      PEZero:  N= 2 I= 1 D=  1.60D-04 Err=  2.46D-07
    Cycle     2 NS=    64 Truncation Error =  0.000000246
 BS completed in    2 cycles and     112 integration steps.
 Maximum DWI energy   std dev =  0.000000120 at pt    23
 Maximum DWI gradient std dev =  0.000127506 at pt    19
 SUMMARY OF CORRECTOR INTEGRATION:
   Predictor End Point Energy =   -56.974633
   Old End Point Energy       =   -56.974633
   Corrected End Point Energy =   -56.974633
   Predictor End-Start Dist.  =     0.030809
   Old End-Start Dist.        =     0.030809
   New End-Start Dist.        =     0.030809
   New End-Old End Dist.      =     0.000002
 CORRECTOR INTEGRATION CONVERGENCE:
   Recorrection delta-x convergence threshold:    0.010000
   Delta-x Convergence Met
 Point Number:   5          Path Number:   1
                    CURRENT STRUCTURE
                Cartesian Coordinates (Ang):                
 ---------------------------------------------------------------------
 Center     Atomic                     Coordinates (Angstroms)
 Number     Number                        X           Y           Z
 ---------------------------------------------------------------------
      1          1                   -0.956428   -0.112295   -0.385181
      2          1                    0.380686    0.884489   -0.385350
      3          1                    0.575380   -0.772034   -0.385554
      4          1                    0.000049   -0.000038    1.425732
      5          7                    0.000030   -0.000011   -0.019427
 ---------------------------------------------------------------------
   CHANGE IN THE REACTION COORDINATE =    0.03081
   NET REACTION COORDINATE UP TO THIS POINT =    0.15404
  # OF POINTS ALONG THE PATH =   5
  # OF STEPS =   1

 Calculating another point on the path.
 Point Number  6 in FORWARD path direction.
 Using LQA Reaction Path Following.
   LQA: T_Est iteration completed in    3 iterations.
 IRC-IRC-IRC-IRC-IRC-IRC-IRC-IRC-IRC-IRC-IRC-IRC-IRC-IRC-IRC-IRC-IRC-IRC
 Leave Link  123 at Tue Apr  9 22:12:29 2024, MaxMem=   104857600 cpu:               0.0 elap:               0.0
 (Enter /opt/g16/l202.exe)
                          Input orientation:                          
 ---------------------------------------------------------------------
 Center     Atomic      Atomic             Coordinates (Angstroms)
 Number     Number       Type             X           Y           Z
 ---------------------------------------------------------------------
      1          1           0       -0.957061   -0.112367   -0.384447
      2          1           0        0.380933    0.885074   -0.384627
      3          1           0        0.575756   -0.772543   -0.384839
      4          1           0        0.000053   -0.000040    1.409991
      5          7           0        0.000031   -0.000012   -0.018452
 ---------------------------------------------------------------------
                    Distance matrix (angstroms):
                    1          2          3          4          5
     1  H    0.000000
     2  H    1.668867   0.000000
     3  H    1.668940   1.669027   0.000000
     4  H    2.036834   2.036946   2.037059   0.000000
     5  N    1.030825   1.030799   1.030778   1.428444   0.000000
 Symmetry turned off by external request.
 Stoichiometry    H4N(1-)
 Framework group  C1[X(H4N)]
 Deg. of freedom     9
 Full point group                 C1      NOp   1
 Rotational constants (GHZ):         180.0314083         130.9563122         130.9457624
 Leave Link  202 at Tue Apr  9 22:12:29 2024, MaxMem=   104857600 cpu:               0.0 elap:               0.0
 (Enter /opt/g16/l301.exe)
 Standard basis: STO-3G (5D, 7F)
 Ernie: Thresh=  0.10000D-02 Tol=  0.10000D-05 Strict=F.
     9 basis functions,    27 primitive gaussians,     9 cartesian basis functions
     6 alpha electrons        6 beta electrons
       nuclear repulsion energy        15.1044562789 Hartrees.
 IExCor=    0 DFT=F Ex=HF Corr=None ExCW=0 ScaHFX=  1.000000
 ScaDFX=  1.000000  1.000000  1.000000  1.000000 ScalE2=  1.000000  1.000000
 IRadAn=      5 IRanWt=     -1 IRanGd=            0 ICorTp=0 IEmpDi=  4
 NAtoms=    5 NActive=    5 NUniq=    5 SFac= 1.00D+00 NAtFMM=   60 NAOKFM=F Big=F
 Integral buffers will be    131072 words long.
 Raffenetti 1 integral format.
 Two-electron integral symmetry is turned off.
 Leave Link  301 at Tue Apr  9 22:12:29 2024, MaxMem=   104857600 cpu:               0.0 elap:               0.0
 (Enter /opt/g16/l402.exe)
 External calculation of energy, first and second derivatives.
 Running external command "python3 -u ../pes/h4n_anion_pes.py R"
         input file       "/home/jh-li/scratch/g16/Gau-1179679.EIn"
         output file      "/home/jh-li/scratch/g16/Gau-1179679.EOu"
         message file     "/home/jh-li/scratch/g16/Gau-1179679.EMs"
         fchk file        "/home/jh-li/scratch/g16/Gau-1179679.EFC"
         mat. el file     "/home/jh-li/scratch/g16/Gau-1179679.EUF"
 initialization done
 Recovered energy= -56.9750974605     dipole=      0.000000000000      0.000000000000      0.000000000000
 NRF= 0 NRA=   0 NVA=   0 HaveQM=F NVQ=       0
 Convergence limit is  0.750E-04 MaxStp= 10000 StMxLn= 3.00D-04 StpMin= 1.00D-06.
 Convergence criteria             0.00011250 0.00007500 0.00045000 0.00030000
  Step  NS  ND Rises OKQ   Scale  Max. Force  RMS Force Max. Disp.  RMS Disp.     Energy   Flag
     1   0   0   F    T  1.00D+00 0.00000000 0.00000000 0.00000000 0.00000000  -56.9750975 ====
 Running external command "python3 -u ../pes/h4n_anion_pes.py R"
         input file       "/home/jh-li/scratch/g16/Gau-1179679.EIn"
         output file      "/home/jh-li/scratch/g16/Gau-1179679.EOu"
         message file     "/home/jh-li/scratch/g16/Gau-1179679.EMs"
         fchk file        "/home/jh-li/scratch/g16/Gau-1179679.EFC"
         mat. el file     "/home/jh-li/scratch/g16/Gau-1179679.EUF"
 initialization done
 Recovered energy= -56.9750974605     dipole=      0.000000000000      0.000000000000      0.000000000000
 Energy=    -56.9750975     NIter=   0.
 Dipole moment=       0.000000       0.000000       0.000000
 Leave Link  402 at Tue Apr  9 22:12:30 2024, MaxMem=   104857600 cpu:               0.1 elap:               0.5
 (Enter /opt/g16/l716.exe)
 Dipole        = 0.00000000D+00 0.00000000D+00 0.00000000D+00
 -------------------------------------------------------------------
 Center     Atomic                   Forces (Hartrees/Bohr)
 Number     Number              X              Y              Z
 -------------------------------------------------------------------
      1        1          -0.000650291   -0.000074410    0.000755138
      2        1           0.000253738    0.000600675    0.000745642
      3        1           0.000386530   -0.000522778    0.000738299
      4        1           0.000004121   -0.000001516   -0.016342536
      5        7           0.000012078   -0.000004232    0.014081707
 -------------------------------------------------------------------
 Cartesian Forces:  Max     0.016342536 RMS     0.005587610
 Force constants in Cartesian coordinates: 
                1             2             3             4             5 
      1  0.350786D+00
      2  0.350732D-01  0.560684D-01
      3  0.104481D+00  0.122537D-01  0.619725D-01
      4 -0.650781D-02 -0.298053D-01  0.158233D-01  0.991926D-01
      5  0.787189D-02  0.274420D-04  0.184934D-02  0.109978D+00  0.307462D+00
      6 -0.628993D-02 -0.146299D-01  0.313012D-02 -0.415779D-01 -0.966806D-01
      7 -0.110934D-01  0.271444D-01  0.158314D-01  0.788581D-02 -0.161795D-01
      8 -0.105239D-01  0.462043D-02  0.187170D-02  0.214805D-01 -0.143492D-01
      9 -0.951157D-02  0.127764D-01  0.313206D-02 -0.953491D-02  0.127718D-01
     10  0.954697D-02  0.133546D-02 -0.479887D-02 -0.186659D-04  0.418613D-02
     11  0.133538D-02 -0.166359D-02 -0.564074D-03  0.418642D-02  0.790251D-02
     12 -0.182583D-01 -0.214173D-02  0.174356D-03  0.726447D-02  0.168898D-01
     13 -0.342738D+00 -0.337506D-01 -0.131344D+00 -0.100546D+00 -0.105854D+00
     14 -0.337550D-01 -0.590495D-01 -0.154099D-01 -0.105846D+00 -0.301043D+00
     15 -0.704186D-01 -0.825820D-02 -0.684005D-01  0.280240D-01  0.651675D-01
                6             7             8             9            10 
      6  0.620101D-01
      7 -0.631815D-02  0.159940D+00
      8 -0.146404D-01 -0.145113D+00  0.246534D+00
      9  0.313317D-02 -0.629085D-01  0.844390D-01  0.620534D-01
     10  0.190952D-02  0.229567D-02 -0.552369D-02  0.288208D-02  0.139573D-01
     11  0.443345D-02 -0.552390D-02  0.558960D-02 -0.386608D-02  0.000000D+00
     12  0.181863D-03  0.109862D-01 -0.147454D-01  0.188260D-03  0.114519D-04
     13  0.522746D-01 -0.159020D+00  0.139680D+00  0.790720D-01 -0.257796D-01
     14  0.121523D+00  0.139677D+00 -0.242389D+00 -0.106123D+00  0.168085D-05
     15 -0.684467D-01  0.424076D-01 -0.569229D-01 -0.684984D-01 -0.417923D-05
               11            12            13            14            15 
     11  0.139565D-01
     12 -0.331170D-05 -0.104757D+00
     13  0.168155D-05 -0.278174D-05  0.628072D+00
     14 -0.257833D-01  0.000000D+00 -0.770439D-04  0.628255D+00
     15  0.000000D+00  0.104198D+00  0.000000D+00  0.101164D-04  0.101136D+00
 Leave Link  716 at Tue Apr  9 22:12:30 2024, MaxMem=   104857600 cpu:               0.0 elap:               0.0
 (Enter /opt/g16/l123.exe)
 IRC-IRC-IRC-IRC-IRC-IRC-IRC-IRC-IRC-IRC-IRC-IRC-IRC-IRC-IRC-IRC-IRC-IRC
 Pt  6 Step number   1 out of a maximum of  10
 Using modified Bulirsch-Stoer corrector integration.
   Using distance weighted interpolants to fit PES.
 PreDWI: IReCr0= 2 IReCr1= 1 IReCr2= 1 IReCr3= 1
 Modified Bulirsch-Stoer Extrapolation Cycles:
    EPS =    0.000010000000000
    Cycle     1 NS=    48
      PEZero:  N= 2 I= 1 D=  1.60D-04 Err=  1.84D-07
    Cycle     2 NS=    64 Truncation Error =  0.000000184
 BS completed in    2 cycles and     112 integration steps.
 Maximum DWI energy   std dev =  0.000000105 at pt    30
 Maximum DWI gradient std dev =  0.000124794 at pt    13
 SUMMARY OF CORRECTOR INTEGRATION:
   Predictor End Point Energy =   -56.975097
   Old End Point Energy       =   -56.975097
   Corrected End Point Energy =   -56.975097
   Predictor End-Start Dist.  =     0.030810
   Old End-Start Dist.        =     0.030810
   New End-Start Dist.        =     0.030810
   New End-Old End Dist.      =     0.000003
 CORRECTOR INTEGRATION CONVERGENCE:
   Recorrection delta-x convergence threshold:    0.010000
   Delta-x Convergence Met
 Point Number:   6          Path Number:   1
                    CURRENT STRUCTURE
                Cartesian Coordinates (Ang):                
 ---------------------------------------------------------------------
 Center     Atomic                     Coordinates (Angstroms)
 Number     Number                        X           Y           Z
 ---------------------------------------------------------------------
      1          1                   -0.957061   -0.112367   -0.384447
      2          1                    0.380932    0.885073   -0.384627
      3          1                    0.575755   -0.772542   -0.384839
      4          1                    0.000053   -0.000040    1.409991
      5          7                    0.000031   -0.000012   -0.018452
 ---------------------------------------------------------------------
   CHANGE IN THE REACTION COORDINATE =    0.03081
   NET REACTION COORDINATE UP TO THIS POINT =    0.18485
  # OF POINTS ALONG THE PATH =   6
  # OF STEPS =   1

 Calculating another point on the path.
 Point Number  7 in FORWARD path direction.
 Using LQA Reaction Path Following.
   LQA: T_Est iteration completed in    3 iterations.
 IRC-IRC-IRC-IRC-IRC-IRC-IRC-IRC-IRC-IRC-IRC-IRC-IRC-IRC-IRC-IRC-IRC-IRC
 Leave Link  123 at Tue Apr  9 22:12:30 2024, MaxMem=   104857600 cpu:               0.0 elap:               0.0
 (Enter /opt/g16/l202.exe)
                          Input orientation:                          
 ---------------------------------------------------------------------
 Center     Atomic      Atomic             Coordinates (Angstroms)
 Number     Number       Type             X           Y           Z
 ---------------------------------------------------------------------
      1          1           0       -0.957683   -0.112438   -0.383725
      2          1           0        0.381176    0.885648   -0.383913
      3          1           0        0.576126   -0.773043   -0.384131
      4          1           0        0.000057   -0.000041    1.394250
      5          7           0        0.000031   -0.000012   -0.017475
 ---------------------------------------------------------------------
                    Distance matrix (angstroms):
                    1          2          3          4          5
     1  H    0.000000
     2  H    1.669946   0.000000
     3  H    1.670020   1.670108   0.000000
     4  H    2.022645   2.022761   2.022876   0.000000
     5  N    1.031501   1.031475   1.031455   1.411726   0.000000
 Symmetry turned off by external request.
 Stoichiometry    H4N(1-)
 Framework group  C1[X(H4N)]
 Deg. of freedom     9
 Full point group                 C1      NOp   1
 Rotational constants (GHZ):         179.7985601         132.4952683         132.4842834
 Leave Link  202 at Tue Apr  9 22:12:30 2024, MaxMem=   104857600 cpu:               0.0 elap:               0.0
 (Enter /opt/g16/l301.exe)
 Standard basis: STO-3G (5D, 7F)
 Ernie: Thresh=  0.10000D-02 Tol=  0.10000D-05 Strict=F.
     9 basis functions,    27 primitive gaussians,     9 cartesian basis functions
     6 alpha electrons        6 beta electrons
       nuclear repulsion energy        15.1329479249 Hartrees.
 IExCor=    0 DFT=F Ex=HF Corr=None ExCW=0 ScaHFX=  1.000000
 ScaDFX=  1.000000  1.000000  1.000000  1.000000 ScalE2=  1.000000  1.000000
 IRadAn=      5 IRanWt=     -1 IRanGd=            0 ICorTp=0 IEmpDi=  4
 NAtoms=    5 NActive=    5 NUniq=    5 SFac= 1.00D+00 NAtFMM=   60 NAOKFM=F Big=F
 Integral buffers will be    131072 words long.
 Raffenetti 1 integral format.
 Two-electron integral symmetry is turned off.
 Leave Link  301 at Tue Apr  9 22:12:30 2024, MaxMem=   104857600 cpu:               0.1 elap:               0.1
 (Enter /opt/g16/l402.exe)
 External calculation of energy, first and second derivatives.
 Running external command "python3 -u ../pes/h4n_anion_pes.py R"
         input file       "/home/jh-li/scratch/g16/Gau-1179679.EIn"
         output file      "/home/jh-li/scratch/g16/Gau-1179679.EOu"
         message file     "/home/jh-li/scratch/g16/Gau-1179679.EMs"
         fchk file        "/home/jh-li/scratch/g16/Gau-1179679.EFC"
         mat. el file     "/home/jh-li/scratch/g16/Gau-1179679.EUF"
 initialization done
 Recovered energy= -56.9756686534     dipole=      0.000000000000      0.000000000000      0.000000000000
 NRF= 0 NRA=   0 NVA=   0 HaveQM=F NVQ=       0
 Convergence limit is  0.750E-04 MaxStp= 10000 StMxLn= 3.00D-04 StpMin= 1.00D-06.
 Convergence criteria             0.00011250 0.00007500 0.00045000 0.00030000
  Step  NS  ND Rises OKQ   Scale  Max. Force  RMS Force Max. Disp.  RMS Disp.     Energy   Flag
     1   0   0   F    T  1.00D+00 0.00000000 0.00000000 0.00000000 0.00000000  -56.9756687 ====
 Running external command "python3 -u ../pes/h4n_anion_pes.py R"
         input file       "/home/jh-li/scratch/g16/Gau-1179679.EIn"
         output file      "/home/jh-li/scratch/g16/Gau-1179679.EOu"
         message file     "/home/jh-li/scratch/g16/Gau-1179679.EMs"
         fchk file        "/home/jh-li/scratch/g16/Gau-1179679.EFC"
         mat. el file     "/home/jh-li/scratch/g16/Gau-1179679.EUF"
 initialization done
 Recovered energy= -56.9756686534     dipole=      0.000000000000      0.000000000000      0.000000000000
 Energy=    -56.9756687     NIter=   0.
 Dipole moment=       0.000000       0.000000       0.000000
 Leave Link  402 at Tue Apr  9 22:12:31 2024, MaxMem=   104857600 cpu:               0.0 elap:               0.5
 (Enter /opt/g16/l716.exe)
 Dipole        = 0.00000000D+00 0.00000000D+00 0.00000000D+00
 -------------------------------------------------------------------
 Center     Atomic                   Forces (Hartrees/Bohr)
 Number     Number              X              Y              Z
 -------------------------------------------------------------------
      1        1          -0.000771218   -0.000088667    0.000901792
      2        1           0.000302027    0.000712550    0.000892732
      3        1           0.000459451   -0.000620509    0.000885778
      4        1           0.000004576   -0.000001648   -0.019772494
      5        7           0.000011356   -0.000003992    0.017070027
 -------------------------------------------------------------------
 Cartesian Forces:  Max     0.019772494 RMS     0.006765254
 Force constants in Cartesian coordinates: 
                1             2             3             4             5 
      1  0.348561D+00
      2  0.348508D-01  0.557092D-01
      3  0.103483D+00  0.121365D-01  0.625382D-01
      4 -0.644182D-02 -0.295974D-01  0.157156D-01  0.985588D-01
      5  0.757764D-02  0.118927D-03  0.159554D-02  0.109281D+00  0.305510D+00
      6 -0.601569D-02 -0.145990D-01  0.328279D-02 -0.411811D-01 -0.957595D-01
      7 -0.110453D-01  0.269261D-01  0.156678D-01  0.800807D-02 -0.159179D-01
      8 -0.102401D-01  0.472987D-02  0.209357D-02  0.212398D-01 -0.143138D-01
[...]
    Cycle     2 NS=    64 Truncation Error =  0.000000516
 BS completed in    2 cycles and     112 integration steps.
 Maximum DWI energy   std dev =  0.000000023 at pt    32
 Maximum DWI gradient std dev =  0.000034649 at pt    33
 SUMMARY OF CORRECTOR INTEGRATION:
   Predictor End Point Energy =   -56.993383
   Old End Point Energy       =   -56.993383
   Corrected End Point Energy =   -56.993383
   Predictor End-Start Dist.  =     0.030811
   Old End-Start Dist.        =     0.030811
   New End-Start Dist.        =     0.030811
   New End-Old End Dist.      =     0.000001
 CORRECTOR INTEGRATION CONVERGENCE:
   Recorrection delta-x convergence threshold:    0.010000
   Delta-x Convergence Met
 Point Number:  99          Path Number:   2
                    CURRENT STRUCTURE
                Cartesian Coordinates (Ang):                
 ---------------------------------------------------------------------
 Center     Atomic                     Coordinates (Angstroms)
 Number     Number                        X           Y           Z
 ---------------------------------------------------------------------
      1          1                   -0.946929   -0.108966   -0.460322
      2          1                    0.370433    0.873254   -0.476898
      3          1                    0.562159   -0.758941   -0.490813
      4          1                   -0.008135    0.002991    3.056740
      5          7                    0.001486   -0.000552   -0.117378
 ---------------------------------------------------------------------
   CHANGE IN THE REACTION COORDINATE =    0.03081
   NET REACTION COORDINATE UP TO THIS POINT =    3.05021
  # OF POINTS ALONG THE PATH = 129
  # OF STEPS =   1

 Calculating another point on the path.
 Point Number100 in REVERSE path direction.
 Using LQA Reaction Path Following.
   LQA: T_Est iteration completed in    2 iterations.
 IRC-IRC-IRC-IRC-IRC-IRC-IRC-IRC-IRC-IRC-IRC-IRC-IRC-IRC-IRC-IRC-IRC-IRC
 Leave Link  123 at Tue Apr  9 22:13:49 2024, MaxMem=   104857600 cpu:               0.0 elap:               0.0
 (Enter /opt/g16/l202.exe)
                          Input orientation:                          
 ---------------------------------------------------------------------
 Center     Atomic      Atomic             Coordinates (Angstroms)
 Number     Number       Type             X           Y           Z
 ---------------------------------------------------------------------
      1          1           0       -0.947094   -0.108896   -0.460504
      2          1           0        0.370228    0.873308   -0.477804
      3          1           0        0.561940   -0.758848   -0.492324
      4          1           0       -0.008531    0.003138    3.072481
      5          7           0        0.001559   -0.000579   -0.118325
 ---------------------------------------------------------------------
                    Distance matrix (angstroms):
                    1          2          3          4          5
     1  H    0.000000
     2  H    1.643277   0.000000
     3  H    1.643360   1.643440   0.000000
     4  H    3.657244   3.674939   3.689700   0.000000
     5  N    1.014278   1.014308   1.014334   3.190824   0.000000
 Symmetry turned off by external request.
 Stoichiometry    H4N(1-)
 Framework group  C1[X(H4N)]
 Deg. of freedom     9
 Full point group                 C1      NOp   1
 Rotational constants (GHZ):         185.7201801          42.9792564          42.9767672
 Leave Link  202 at Tue Apr  9 22:13:49 2024, MaxMem=   104857600 cpu:               0.0 elap:               0.0
 (Enter /opt/g16/l301.exe)
 Standard basis: STO-3G (5D, 7F)
 Ernie: Thresh=  0.10000D-02 Tol=  0.10000D-05 Strict=F.
     9 basis functions,    27 primitive gaussians,     9 cartesian basis functions
     6 alpha electrons        6 beta electrons
       nuclear repulsion energy        13.5150203879 Hartrees.
 IExCor=    0 DFT=F Ex=HF Corr=None ExCW=0 ScaHFX=  1.000000
 ScaDFX=  1.000000  1.000000  1.000000  1.000000 ScalE2=  1.000000  1.000000
 IRadAn=      5 IRanWt=     -1 IRanGd=            0 ICorTp=0 IEmpDi=  4
 NAtoms=    5 NActive=    5 NUniq=    5 SFac= 1.00D+00 NAtFMM=   60 NAOKFM=F Big=F
 Integral buffers will be    131072 words long.
 Raffenetti 1 integral format.
 Two-electron integral symmetry is turned off.
 Leave Link  301 at Tue Apr  9 22:13:49 2024, MaxMem=   104857600 cpu:               0.1 elap:               0.1
 (Enter /opt/g16/l402.exe)
 External calculation of energy, first and second derivatives.
 Running external command "python3 -u ../pes/h4n_anion_pes.py R"
         input file       "/home/jh-li/scratch/g16/Gau-1179679.EIn"
         output file      "/home/jh-li/scratch/g16/Gau-1179679.EOu"
         message file     "/home/jh-li/scratch/g16/Gau-1179679.EMs"
         fchk file        "/home/jh-li/scratch/g16/Gau-1179679.EFC"
         mat. el file     "/home/jh-li/scratch/g16/Gau-1179679.EUF"
 initialization done
 Recovered energy= -56.9934897387     dipole=      0.000000000000      0.000000000000      0.000000000000
 NRF= 0 NRA=   0 NVA=   0 HaveQM=F NVQ=       0
 Convergence limit is  0.750E-04 MaxStp= 10000 StMxLn= 3.00D-04 StpMin= 1.00D-06.
 Convergence criteria             0.00011250 0.00007500 0.00045000 0.00030000
  Step  NS  ND Rises OKQ   Scale  Max. Force  RMS Force Max. Disp.  RMS Disp.     Energy   Flag
     1   0   0   F    T  1.00D+00 0.00000000 0.00000000 0.00000000 0.00000000  -56.9934897 ====
 Running external command "python3 -u ../pes/h4n_anion_pes.py R"
         input file       "/home/jh-li/scratch/g16/Gau-1179679.EIn"
         output file      "/home/jh-li/scratch/g16/Gau-1179679.EOu"
         message file     "/home/jh-li/scratch/g16/Gau-1179679.EMs"
         fchk file        "/home/jh-li/scratch/g16/Gau-1179679.EFC"
         mat. el file     "/home/jh-li/scratch/g16/Gau-1179679.EUF"
 initialization done
 Recovered energy= -56.9934897387     dipole=      0.000000000000      0.000000000000      0.000000000000
 Energy=    -56.9934897     NIter=   0.
 Dipole moment=       0.000000       0.000000       0.000000
 Leave Link  402 at Tue Apr  9 22:13:49 2024, MaxMem=   104857600 cpu:               0.0 elap:               0.5
 (Enter /opt/g16/l716.exe)
 Dipole        = 0.00000000D+00 0.00000000D+00 0.00000000D+00
 -------------------------------------------------------------------
 Center     Atomic                   Forces (Hartrees/Bohr)
 Number     Number              X              Y              Z
 -------------------------------------------------------------------
      1        1          -0.000036182    0.000015421   -0.000036372
      2        1          -0.000044689    0.000012114   -0.000194638
      3        1          -0.000048053    0.000020486   -0.000326760
      4        1          -0.000086480    0.000032057    0.003362344
      5        7           0.000220534   -0.000081960   -0.002809354
 -------------------------------------------------------------------
 Cartesian Forces:  Max     0.003362344 RMS     0.001137661
 Force constants in Cartesian coordinates: 
                1             2             3             4             5 
      1  0.407344D+00
      2  0.398950D-01  0.625898D-01
      3  0.124378D+00  0.146080D-01  0.528380D-01
      4 -0.115847D-01 -0.347884D-01  0.167434D-01  0.110660D+00
      5  0.349265D-02 -0.244437D-02  0.456264D-02  0.124995D+00  0.354197D+00
      6 -0.899201D-02 -0.141154D-01 -0.125804D-02 -0.519622D-01 -0.120882D+00
      7 -0.181073D-01  0.307671D-01  0.179526D-01  0.839717D-02 -0.148005D-01
      8 -0.701645D-02  0.390801D-02 -0.449252D-03  0.223911D-01 -0.228261D-01
      9 -0.120956D-01  0.116836D-01 -0.107261D-02 -0.821186D-02  0.154835D-01
     10  0.110677D-03  0.382532D-04  0.127433D-02 -0.180831D-03  0.114040D-03
     11  0.383053D-04 -0.239254D-03  0.146225D-03  0.114023D-03  0.547249D-04
     12 -0.959941D-03 -0.106178D-03 -0.343163D-03  0.376175D-03  0.910827D-03
     13 -0.377763D+00 -0.359139D-01 -0.160354D+00 -0.107284D+00 -0.113801D+00
     14 -0.364092D-01 -0.638085D-01 -0.188670D-01 -0.112716D+00 -0.328978D+00
     15 -0.102332D+00 -0.120703D-01 -0.501621D-01  0.430555D-01  0.999276D-01
                6             7             8             9            10 
      6  0.575248D-01
      7 -0.468177D-02  0.179615D+00
      8 -0.174324D-01 -0.164755D+00  0.280803D+00
      9 -0.827858D-03 -0.816911D-01  0.109722D+00  0.616362D-01
     10 -0.495827D-03 -0.109040D-03 -0.143444D-03 -0.751147D-03 -0.114685D-02
     11 -0.117193D-02 -0.143482D-03 -0.154198D-04  0.101542D-02  0.000000D+00
     12 -0.394875D-03  0.591563D-03 -0.807255D-03 -0.439294D-03 -0.303085D-04
     13  0.661303D-01 -0.169788D+00  0.149526D+00  0.102749D+00  0.132618D-02
     14  0.153606D+00  0.148937D+00 -0.261863D+00 -0.137906D+00 -0.839828D-05
     15 -0.550417D-01  0.678303D-01 -0.910352D-01 -0.592938D-01  0.296101D-05
               11            12            13            14            15 
     11 -0.114611D-02
     12  0.112922D-04  0.126420D-02
     13 -0.839678D-05  0.224392D-04  0.653494D+00
     14  0.134619D-02 -0.866041D-05  0.196956D-03  0.653288D+00
     15 -0.100181D-05 -0.872359D-04 -0.854795D-02  0.317582D-02  0.164578D+00
 Leave Link  716 at Tue Apr  9 22:13:49 2024, MaxMem=   104857600 cpu:               0.0 elap:               0.0
 (Enter /opt/g16/l123.exe)
 IRC-IRC-IRC-IRC-IRC-IRC-IRC-IRC-IRC-IRC-IRC-IRC-IRC-IRC-IRC-IRC-IRC-IRC
 Pt130 Step number   1 out of a maximum of  10
 Using modified Bulirsch-Stoer corrector integration.
   Using distance weighted interpolants to fit PES.
 PreDWI: IReCr0= 2 IReCr1= 1 IReCr2= 1 IReCr3= 1
 Modified Bulirsch-Stoer Extrapolation Cycles:
    EPS =    0.000010000000000
    Cycle     1 NS=    48
      PEZero:  N= 2 I= 1 D=  1.60D-04 Err=  5.33D-07
    Cycle     2 NS=    64 Truncation Error =  0.000000533
 BS completed in    2 cycles and     112 integration steps.
 Maximum DWI energy   std dev =  0.000000024 at pt    32
 Maximum DWI gradient std dev =  0.000034996 at pt    33
 SUMMARY OF CORRECTOR INTEGRATION:
   Predictor End Point Energy =   -56.993490
   Old End Point Energy       =   -56.993490
   Corrected End Point Energy =   -56.993490
   Predictor End-Start Dist.  =     0.030811
   Old End-Start Dist.        =     0.030811
   New End-Start Dist.        =     0.030811
   New End-Old End Dist.      =     0.000001
 CORRECTOR INTEGRATION CONVERGENCE:
   Recorrection delta-x convergence threshold:    0.010000
   Delta-x Convergence Met
 Point Number: 100          Path Number:   2
                    CURRENT STRUCTURE
                Cartesian Coordinates (Ang):                
 ---------------------------------------------------------------------
 Center     Atomic                     Coordinates (Angstroms)
 Number     Number                        X           Y           Z
 ---------------------------------------------------------------------
      1          1                   -0.947094   -0.108896   -0.460504
      2          1                    0.370228    0.873308   -0.477804
      3          1                    0.561940   -0.758848   -0.492324
      4          1                   -0.008531    0.003138    3.072481
      5          7                    0.001559   -0.000579   -0.118325
 ---------------------------------------------------------------------
   CHANGE IN THE REACTION COORDINATE =    0.03081
   NET REACTION COORDINATE UP TO THIS POINT =    3.08102
  # OF POINTS ALONG THE PATH = 130
  # OF STEPS =   1

 Maximum number of steps reached.
 Calculation of REVERSE path complete.
 Reaction path calculation complete.
 
 Energies reported relative to the TS energy of         -56.973699
 --------------------------------------------------------------------------
    Summary of reaction path following
 --------------------------------------------------------------------------
                        Energy    RxCoord
   1                   -0.01979  -3.08102
   2                   -0.01968  -3.05021
   3                   -0.01958  -3.01940
   4                   -0.01947  -2.98859
   5                   -0.01935  -2.95778
   6                   -0.01924  -2.92696
   7                   -0.01913  -2.89615
   8                   -0.01901  -2.86534
   9                   -0.01890  -2.83453
  10                   -0.01878  -2.80372
  11                   -0.01866  -2.77291
  12                   -0.01854  -2.74210
  13                   -0.01842  -2.71129
  14                   -0.01829  -2.68048
  15                   -0.01817  -2.64966
  16                   -0.01804  -2.61885
  17                   -0.01791  -2.58804
  18                   -0.01778  -2.55723
  19                   -0.01765  -2.52642
  20                   -0.01751  -2.49561
  21                   -0.01738  -2.46480
  22                   -0.01724  -2.43399
  23                   -0.01710  -2.40318
  24                   -0.01695  -2.37236
  25                   -0.01681  -2.34155
  26                   -0.01666  -2.31074
  27                   -0.01651  -2.27993
  28                   -0.01636  -2.24912
  29                   -0.01621  -2.21831
  30                   -0.01606  -2.18750
  31                   -0.01590  -2.15669
  32                   -0.01574  -2.12587
  33                   -0.01558  -2.09506
  34                   -0.01542  -2.06425
  35                   -0.01525  -2.03344
  36                   -0.01508  -2.00263
  37                   -0.01491  -1.97182
  38                   -0.01474  -1.94101
  39                   -0.01457  -1.91020
  40                   -0.01439  -1.87939
  41                   -0.01422  -1.84857
  42                   -0.01404  -1.81776
  43                   -0.01386  -1.78695
  44                   -0.01368  -1.75614
  45                   -0.01349  -1.72533
  46                   -0.01331  -1.69452
  47                   -0.01313  -1.66371
  48                   -0.01294  -1.63290
  49                   -0.01275  -1.60209
  50                   -0.01257  -1.57128
  51                   -0.01238  -1.54046
  52                   -0.01219  -1.50965
  53                   -0.01200  -1.47884
  54                   -0.01181  -1.44803
  55                   -0.01162  -1.41722
  56                   -0.01143  -1.38641
  57                   -0.01124  -1.35560
  58                   -0.01104  -1.32479
  59                   -0.01085  -1.29398
  60                   -0.01065  -1.26317
  61                   -0.01045  -1.23236
  62                   -0.01024  -1.20155
  63                   -0.01003  -1.17074
  64                   -0.00982  -1.13993
  65                   -0.00960  -1.10912
  66                   -0.00937  -1.07831
  67                   -0.00913  -1.04749
  68                   -0.00888  -1.01668
  69                   -0.00862  -0.98587
  70                   -0.00834  -0.95506
  71                   -0.00805  -0.92426
  72                   -0.00775  -0.89345
  73                   -0.00744  -0.86264
  74                   -0.00711  -0.83183
  75                   -0.00678  -0.80102
  76                   -0.00644  -0.77022
  77                   -0.00610  -0.73941
  78                   -0.00577  -0.70860
  79                   -0.00544  -0.67779
  80                   -0.00513  -0.64698
  81                   -0.00482  -0.61618
  82                   -0.00453  -0.58537
  83                   -0.00425  -0.55456
  84                   -0.00399  -0.52375
  85                   -0.00372  -0.49294
  86                   -0.00346  -0.46213
  87                   -0.00320  -0.43132
  88                   -0.00293  -0.40051
  89                   -0.00266  -0.36971
  90                   -0.00236  -0.33890
  91                   -0.00206  -0.30809
  92                   -0.00175  -0.27729
  93                   -0.00144  -0.24648
  94                   -0.00114  -0.21567
  95                   -0.00086  -0.18486
  96                   -0.00062  -0.15405
  97                   -0.00041  -0.12324
  98                   -0.00024  -0.09243
  99                   -0.00011  -0.06162
 100                   -0.00003  -0.03081
 101                    0.00000   0.00000
 102                   -0.00003   0.03081
 103                   -0.00013   0.06161
 104                   -0.00031   0.09242
 105                   -0.00057   0.12323
 106                   -0.00093   0.15404
 107                   -0.00140   0.18485
 108                   -0.00197   0.21566
 109                   -0.00265   0.24647
 110                   -0.00344   0.27728
 111                   -0.00435   0.30809
 112                   -0.00536   0.33890
 113                   -0.00649   0.36971
 114                   -0.00772   0.40052
 115                   -0.00905   0.43133
 116                   -0.01046   0.46214
 117                   -0.01195   0.49295
 118                   -0.01349   0.52376
 119                   -0.01508   0.55458
 120                   -0.01668   0.58539
 121                   -0.01827   0.61620
 122                   -0.01983   0.64701
 123                   -0.02134   0.67782
 124                   -0.02275   0.70863
 125                   -0.02405   0.73944
 126                   -0.02521   0.77025
 127                   -0.02618   0.80106
 128                   -0.02695   0.83187
 129                   -0.02748   0.86266
 130                   -0.02775   0.89310
 131                   -0.02784   0.92222
 --------------------------------------------------------------------------
 
 Total number of points:                  130
 Total number of gradient calculations:   131
 Total number of Hessian calculations:    131
 IRC-IRC-IRC-IRC-IRC-IRC-IRC-IRC-IRC-IRC-IRC-IRC-IRC-IRC-IRC-IRC-IRC-IRC
 Leave Link  123 at Tue Apr  9 22:13:49 2024, MaxMem=   104857600 cpu:               0.0 elap:               0.0
 (Enter /opt/g16/l202.exe)
                          Input orientation:                          
 ---------------------------------------------------------------------
 Center     Atomic      Atomic             Coordinates (Angstroms)
 Number     Number       Type             X           Y           Z
 ---------------------------------------------------------------------
      1          1           0       -0.947094   -0.108896   -0.460504
      2          1           0        0.370228    0.873308   -0.477804
      3          1           0        0.561940   -0.758848   -0.492324
      4          1           0       -0.008531    0.003138    3.072481
      5          7           0        0.001559   -0.000579   -0.118325
 ---------------------------------------------------------------------
                    Distance matrix (angstroms):
                    1          2          3          4          5
     1  H    0.000000
     2  H    1.643277   0.000000
     3  H    1.643360   1.643440   0.000000
     4  H    3.657244   3.674939   3.689700   0.000000
     5  N    1.014278   1.014308   1.014334   3.190824   0.000000
 Symmetry turned off by external request.
 Stoichiometry    H4N(1-)
 Framework group  C1[X(H4N)]
 Deg. of freedom     9
 Full point group                 C1      NOp   1
 Rotational constants (GHZ):         185.7201801          42.9792564          42.9767672
 Leave Link  202 at Tue Apr  9 22:13:49 2024, MaxMem=   104857600 cpu:               0.0 elap:               0.0
 (Enter /opt/g16/l601.exe)
 Leave Link  601 at Tue Apr  9 22:13:49 2024, MaxMem=   104857600 cpu:               0.0 elap:               0.0
 (Enter /opt/g16/l9999.exe)

 This type of calculation cannot be archived.


 HE THAT WALD REACHE THE SWEITE ROSE
 SULD NOW AND THEN BE SCRATCHED WT THE SCHARPE BREERES.
 -- PROVERBS AND REASONS OF THE YEAR 1585
           AS REPRINTED IN PAISLEY MAGAZINE 1828.
 Job cpu time:       0 days  0 hours  0 minutes 24.9 seconds.
 Elapsed time:       0 days  0 hours  1 minutes 20.4 seconds.
 File lengths (MBytes):  RWF=      6 Int=      0 D2E=      0 Chk=      2 Scr=      1
 Normal termination of Gaussian 16 at Tue Apr  9 22:13:49 2024.
