 Entering Gaussian System, Link 0=g16
 Initial command:
 /opt/g16/l1.exe "/home/jh-li/scratch/g16/Gau-1179094.inp" -scrdir="/home/jh-li/scratch/g16/"
 Entering Link 1 = /opt/g16/l1.exe PID=   1179097.
  
 Copyright (c) 1988-2019, Gaussian, Inc.  All Rights Reserved.
  
 This is part of the Gaussian(R) 16 program.  It is based on
 the Gaussian(R) 09 system (copyright 2009, Gaussian, Inc.),
 the Gaussian(R) 03 system (copyright 2003, Gaussian, Inc.),
 the Gaussian(R) 98 system (copyright 1998, Gaussian, Inc.),
 the Gaussian(R) 94 system (copyright 1995, Gaussian, Inc.),
 the Gaussian 92(TM) system (copyright 1992, Gaussian, Inc.),
 the Gaussian 90(TM) system (copyright 1990, Gaussian, Inc.),
 the Gaussian 88(TM) system (copyright 1988, Gaussian, Inc.),
 the Gaussian 86(TM) system (copyright 1986, Carnegie Mellon
 University), and the Gaussian 82(TM) system (copyright 1983,
 Carnegie Mellon University). Gaussian is a federally registered
 trademark of Gaussian, Inc.
  
 This software contains proprietary and confidential information,
 including trade secrets, belonging to Gaussian, Inc.
  
 This software is provided under written license and may be
 used, copied, transmitted, or stored only in accord with that
 written license.
  
 The following legend is applicable only to US Government
 contracts under FAR:
  
                    RESTRICTED RIGHTS LEGEND
  
 Use, reproduction and disclosure by the US Government is
 subject to restrictions as set forth in subparagraphs (a)
 and (c) of the Commercial Computer Software - Restricted
 Rights clause in FAR 52.227-19.
  
 Gaussian, Inc.
 340 Quinnipiac St., Bldg. 40, Wallingford CT 06492
  
  
 ---------------------------------------------------------------
 Warning -- This program may not be used in any manner that
 competes with the business of Gaussian, Inc. or will provide
 assistance to any competitor of Gaussian, Inc.  The licensee
 of this program is prohibited from giving any competitor of
 Gaussian, Inc. access to this program.  By using this program,
 the user acknowledges that Gaussian, Inc. is engaged in the
 business of creating and licensing software in the field of
 computational chemistry and represents and warrants to the
 licensee that it is not a competitor of Gaussian, Inc. and that
 it will not use this program in any manner prohibited above.
 ---------------------------------------------------------------
  

 Cite this work as:
 Gaussian 16, Revision C.01,
 M. J. Frisch, G. W. Trucks, H. B. Schlegel, G. E. Scuseria, 
 M. A. Robb, J. R. Cheeseman, G. Scalmani, V. Barone, 
 G. A. Petersson, H. Nakatsuji, X. Li, M. Caricato, A. V. Marenich, 
 J. Bloino, B. G. Janesko, R. Gomperts, B. Mennucci, H. P. Hratchian, 
 J. V. Ortiz, A. F. Izmaylov, J. L. Sonnenberg, D. Williams-Young, 
 F. Ding, F. Lipparini, F. Egidi, J. Goings, B. Peng, A. Petrone, 
 T. Henderson, D. Ranasinghe, V. G. Zakrzewski, J. Gao, N. Rega, 
 G. Zheng, W. Liang, M. Hada, M. Ehara, K. Toyota, R. Fukuda, 
 J. Hasegawa, M. Ishida, T. Nakajima, Y. Honda, O. Kitao, H. Nakai, 
 T. Vreven, K. Throssell, J. A. Montgomery, Jr., J. E. Peralta, 
 F. Ogliaro, M. J. Bearpark, J. J. Heyd, E. N. Brothers, K. N. Kudin, 
 V. N. Staroverov, T. A. Keith, R. Kobayashi, J. Normand, 
 K. Raghavachari, A. P. Rendell, J. C. Burant, S. S. Iyengar, 
 J. Tomasi, M. Cossi, J. M. Millam, M. Klene, C. Adamo, R. Cammi, 
 J. W. Ochterski, R. L. Martin, K. Morokuma, O. Farkas, 
 J. B. Foresman, and D. J. Fox, Gaussian, Inc., Wallingford CT, 2019.
 
 ******************************************
 Gaussian 16:  ES64L-G16RevC.01  3-Jul-2019
                 9-Apr-2024 
 ******************************************
 %nproc=1
 Will use up to    1 processors via shared memory.
 %chk=ts3-opt-freq.chk
 ----------------------------------------------------------------------
 #p external="python3 -u ../pes/h4n_anion_pes.py" opt=(nomicro,ts,noeig
 en,calcall)
 ----------------------------------------------------------------------
 1/5=1,10=4,11=1,18=20,26=1,38=1/1,3;
 2/9=110,12=2,17=6,18=5,40=1/2;
 3/11=9,25=1,30=1,41=9900000,43=2,71=2,140=1/1;
 4/20=17,22=2,24=3,113=1,114=1/2;
 6/7=2,8=2,9=2,10=2,18=1/1;
 7/25=1,44=-1/16;
 1/5=1,10=4,11=1,18=20,26=1/3(3);
 2/9=110/2;
 7/8=1,9=1,25=1,44=-1/16;
 99//99;
 2/9=110/2;
 3/11=9,25=1,30=1,41=9900000,43=2,71=2,140=1/1;
 4/16=2,20=17,22=2,24=3,113=1,114=1/2;
 7/25=1,44=-1/16;
 1/5=1,10=4,11=1,18=20,26=1/3(-4);
 2/9=110/2;
 6/7=2,8=2,9=2,10=2,18=1/1;
 7/8=1,9=1,25=1,44=-1/16;
 99//99;
 Leave Link    1 at Tue Apr  9 22:11:30 2024, MaxMem=           0 cpu:               0.0 elap:               0.0
 (Enter /opt/g16/l101.exe)
 -------------------
 H^- + NH3 -> NhH4^-
 -------------------
 Symbolic Z-matrix:
 Charge = -1 Multiplicity = 1
 H                    -0.95322  -0.11199  -0.38935 
 H                     0.37959   0.88151  -0.38936 
 H                     0.57359  -0.76948  -0.38944 
 H                     0.00003  -0.00003   1.50445 
 N                     0.       0.        -0.0242 
 
 Add virtual bond connecting atoms N5         and H4         Dist= 2.89D+00.
 ITRead=  0  0  0  0  0
 MicOpt= -1 -1 -1 -1 -1
 NAtoms=      5 NQM=        5 NQMF=       0 NMMI=      0 NMMIF=      0
                NMic=       0 NMicF=      0.
                    Isotopes and Nuclear Properties:
 (Nuclear quadrupole moments (NQMom) in fm**2, nuclear magnetic moments (NMagM)
  in nuclear magnetons)

  Atom         1           2           3           4           5
 IAtWgt=           1           1           1           1          14
 AtmWgt=   1.0078250   1.0078250   1.0078250   1.0078250  14.0030740
 NucSpn=           1           1           1           1           2
 AtZEff=  -0.0000000  -0.0000000  -0.0000000  -0.0000000  -0.0000000
 NQMom=    0.0000000   0.0000000   0.0000000   0.0000000   2.0440000
 NMagM=    2.7928460   2.7928460   2.7928460   2.7928460   0.4037610
 AtZNuc=   1.0000000   1.0000000   1.0000000   1.0000000   7.0000000
 Leave Link  101 at Tue Apr  9 22:11:30 2024, MaxMem=   104857600 cpu:               0.2 elap:               0.2
 (Enter /opt/g16/l103.exe)

 GradGradGradGradGradGradGradGradGradGradGradGradGradGradGradGradGradGrad
 Berny optimization.
 Initialization pass.
                           ----------------------------
                           !    Initial Parameters    !
                           ! (Angstroms and Degrees)  !
 --------------------------                            --------------------------
 ! Name  Definition              Value          Derivative Info.                !
 --------------------------------------------------------------------------------
 ! R1    R(1,5)                  1.0269         calculate D2E/DX2 analytically  !
 ! R2    R(2,5)                  1.0269         calculate D2E/DX2 analytically  !
 ! R3    R(3,5)                  1.0269         calculate D2E/DX2 analytically  !
 ! R4    R(4,5)                  1.5287         calculate D2E/DX2 analytically  !
 ! A1    A(1,5,2)              108.0773         calculate D2E/DX2 analytically  !
 ! A2    A(1,5,3)              108.0773         calculate D2E/DX2 analytically  !
 ! A3    A(1,5,4)              110.8307         calculate D2E/DX2 analytically  !
 ! A4    A(2,5,3)              108.0768         calculate D2E/DX2 analytically  !
 ! A5    A(2,5,4)              110.8309         calculate D2E/DX2 analytically  !
 ! A6    A(3,5,4)              110.8336         calculate D2E/DX2 analytically  !
 ! D1    D(1,5,3,2)            116.7374         calculate D2E/DX2 analytically  !
 ! D2    D(1,5,4,2)           -119.999          calculate D2E/DX2 analytically  !
 ! D3    D(1,5,4,3)            120.0008         calculate D2E/DX2 analytically  !
 ! D4    D(2,5,4,3)           -120.0002         calculate D2E/DX2 analytically  !
 --------------------------------------------------------------------------------
 Trust Radius=3.00D-01 FncErr=1.00D-07 GrdErr=1.00D-07 EigMax=2.50D+02 EigMin=1.00D-04
 Number of steps in this run=     24 maximum allowed number of steps=    100.
 Search for a saddle point of order  1.
 GradGradGradGradGradGradGradGradGradGradGradGradGradGradGradGradGradGrad

 Leave Link  103 at Tue Apr  9 22:11:30 2024, MaxMem=   104857600 cpu:               0.0 elap:               0.0
 (Enter /opt/g16/l202.exe)
                          Input orientation:                          
 ---------------------------------------------------------------------
 Center     Atomic      Atomic             Coordinates (Angstroms)
 Number     Number       Type             X           Y           Z
 ---------------------------------------------------------------------
      1          1           0       -0.953216   -0.111992   -0.389354
      2          1           0        0.379590    0.881514   -0.389364
      3          1           0        0.573592   -0.769478   -0.389443
      4          1           0        0.000028   -0.000028    1.504454
      5          7           0        0.000000   -0.000001   -0.024200
 ---------------------------------------------------------------------
                    Distance matrix (angstroms):
                    1          2          3          4          5
     1  H    0.000000
     2  H    1.662355   0.000000
     3  H    1.662357   1.662351   0.000000
     4  H    2.123139   2.123142   2.123175   0.000000
     5  N    1.026889   1.026889   1.026890   1.528654   0.000000
 Stoichiometry    H4N(1-)
 Framework group  C1[X(H4N)]
 Deg. of freedom     9
 Full point group                 C1      NOp   1
 Largest Abelian subgroup         C1      NOp   1
 Largest concise Abelian subgroup C1      NOp   1
                         Standard orientation:                         
 ---------------------------------------------------------------------
 Center     Atomic      Atomic             Coordinates (Angstroms)
 Number     Number       Type             X           Y           Z
 ---------------------------------------------------------------------
      1          1           0        0.404526    0.953215   -0.111993
      2          1           0        0.404536   -0.379590    0.881513
      3          1           0        0.404614   -0.573592   -0.769479
      4          1           0       -1.489282   -0.000028   -0.000029
      5          7           0        0.039372   -0.000001   -0.000002
 ---------------------------------------------------------------------
 Rotational constants (GHZ):         181.4616937         122.0652663         122.0649215
 Leave Link  202 at Tue Apr  9 22:11:30 2024, MaxMem=   104857600 cpu:               0.0 elap:               0.0
 (Enter /opt/g16/l301.exe)
 Standard basis: STO-3G (5D, 7F)
 Ernie: Thresh=  0.10000D-02 Tol=  0.10000D-05 Strict=F.
 There are     9 symmetry adapted cartesian basis functions of A   symmetry.
 There are     9 symmetry adapted basis functions of A   symmetry.
     9 basis functions,    27 primitive gaussians,     9 cartesian basis functions
     6 alpha electrons        6 beta electrons
       nuclear repulsion energy        14.9476498006 Hartrees.
 IExCor=    0 DFT=F Ex=HF Corr=None ExCW=0 ScaHFX=  1.000000
 ScaDFX=  1.000000  1.000000  1.000000  1.000000 ScalE2=  1.000000  1.000000
 IRadAn=      5 IRanWt=     -1 IRanGd=            0 ICorTp=0 IEmpDi=  4
 NAtoms=    5 NActive=    5 NUniq=    5 SFac= 1.00D+00 NAtFMM=   60 NAOKFM=F Big=F
 Integral buffers will be    131072 words long.
 Raffenetti 1 integral format.
 Two-electron integral symmetry is turned on.
 Leave Link  301 at Tue Apr  9 22:11:30 2024, MaxMem=   104857600 cpu:               0.0 elap:               0.0
 (Enter /opt/g16/l402.exe)
 External calculation of energy, first and second derivatives.
 Running external command "python3 -u ../pes/h4n_anion_pes.py R"
         input file       "/home/jh-li/scratch/g16/Gau-1179097.EIn"
         output file      "/home/jh-li/scratch/g16/Gau-1179097.EOu"
         message file     "/home/jh-li/scratch/g16/Gau-1179097.EMs"
         fchk file        "/home/jh-li/scratch/g16/Gau-1179097.EFC"
         mat. el file     "/home/jh-li/scratch/g16/Gau-1179097.EUF"
 initialization done
 Recovered energy= -56.9736992549     dipole=      0.000000000000      0.000000000000      0.000000000000
 Energy=    -56.9736993     NIter=   0.
 Dipole moment=       0.000000       0.000000       0.000000
 Leave Link  402 at Tue Apr  9 22:11:30 2024, MaxMem=   104857600 cpu:               0.0 elap:               0.3
 (Enter /opt/g16/l601.exe)
 Leave Link  601 at Tue Apr  9 22:11:30 2024, MaxMem=   104857600 cpu:               0.0 elap:               0.0
 (Enter /opt/g16/l716.exe)
 Dipole        = 0.00000000D+00 0.00000000D+00 0.00000000D+00
 ***** Axes restored to original set *****
 -------------------------------------------------------------------
 Center     Atomic                   Forces (Hartrees/Bohr)
 Number     Number              X              Y              Z
 -------------------------------------------------------------------
      1        1           0.000007124    0.000011234    0.000033002
      2        1          -0.000033358   -0.000018212    0.000033442
      3        1          -0.000039003    0.000030392    0.000033980
      4        1           0.000000321   -0.000000293    0.000044778
      5        7           0.000070940   -0.000025327   -0.000158987
 -------------------------------------------------------------------
 Cartesian Forces:  Max     0.000158987 RMS     0.000051887
 Force constants in Cartesian coordinates: 
                1             2             3             4             5 
      1  0.362317D+00
      2  0.362459D-01  0.579278D-01
      3  0.110360D+00  0.129485D-01  0.599832D-01
      4 -0.703797D-02 -0.308731D-01  0.164039D-01  0.102510D+00
      5  0.886775D-02 -0.478143D-03  0.318960D-02  0.113611D+00  0.317527D+00
      6 -0.774310D-02 -0.148093D-01  0.221766D-02 -0.438947D-01 -0.102038D+00
      7 -0.116499D-01  0.282097D-01  0.166996D-01  0.740723D-02 -0.172061D-01
      8 -0.115276D-01  0.412959D-02  0.700902D-03  0.225296D-01 -0.149329D-01
      9 -0.109664D-01  0.126115D-01  0.221886D-02 -0.895484D-02  0.141118D-01
     10  0.719471D-02  0.993365D-03 -0.176600D-02  0.822156D-04  0.311361D-02
     11  0.993569D-03 -0.114174D-02 -0.207552D-03  0.311331D-02  0.597080D-02
     12 -0.158323D-01 -0.185996D-02 -0.781601D-03  0.630412D-02  0.146410D-01
     13 -0.350826D+00 -0.345780D-01 -0.141705D+00 -0.102956D+00 -0.108383D+00
     14 -0.345783D-01 -0.604351D-01 -0.166310D-01 -0.108386D+00 -0.308084D+00
     15 -0.758413D-01 -0.889343D-02 -0.636327D-01  0.301508D-01  0.701175D-01
                6             7             8             9            10 
      6  0.599851D-01
      7 -0.544163D-02  0.165240D+00
      8 -0.158046D-01 -0.149855D+00  0.254607D+00
      9  0.221916D-02 -0.663623D-01  0.890640D-01  0.600013D-01
     10  0.703253D-03  0.180286D-02 -0.410718D-02  0.106189D-02  0.381724D-02
     11  0.163302D-02 -0.410708D-02  0.425085D-02 -0.142455D-02  0.000000D+00
     12 -0.781668D-03  0.952702D-02 -0.127810D-01 -0.781686D-03  0.000000D+00
     13  0.563754D-01 -0.162792D+00  0.142959D+00  0.852219D-01 -0.128933D-01
     14  0.131025D+00  0.142962D+00 -0.248049D+00 -0.114366D+00  0.000000D+00
     15 -0.636348D-01  0.455914D-01 -0.611982D-01 -0.636522D-01  0.000000D+00
               11            12            13            14            15 
     11  0.381714D-02
     12  0.000000D+00 -0.585119D-01
     13  0.000000D+00  0.179632D-05  0.629453D+00
     14 -0.128933D-01  0.000000D+00  0.193144D-05  0.629447D+00
     15 -0.101850D-05  0.607845D-01  0.105983D-03 -0.277903D-04  0.130191D+00
 FormGI is forming the generalized inverse of G from B-inverse, IUseBI=4.
 Force constants in internal coordinates: 
                1             2             3             4             5 
      1  0.401669D+00
      2 -0.933758D-02  0.401520D+00
      3 -0.933630D-02 -0.933417D-02  0.401394D+00
      4  0.151679D-01  0.151674D-01  0.151677D-01 -0.584830D-01
      5  0.662230D-02  0.661394D-02 -0.385942D-02  0.160723D-02  0.163827D-01
      6  0.102729D-01 -0.271973D-02  0.114581D-01  0.325764D-02 -0.811752D-02
      7 -0.171512D-01  0.286642D-02  0.105635D-02 -0.226117D-02 -0.629065D-02
      8 -0.272108D-02  0.102753D-01  0.114712D-01  0.325834D-02 -0.811128D-02
      9  0.286991D-02 -0.171402D-01  0.105528D-02 -0.226346D-02 -0.629346D-02
     10  0.768046D-03  0.764874D-03 -0.202925D-01 -0.321986D-02  0.124378D-01
     11  0.118019D-01  0.117942D-01  0.760479D-02  0.534602D-02  0.106966D-01
     12  0.108976D-02  0.109529D-02  0.345819D-02  0.962071D-03 -0.122936D-01
     13  0.211150D-02 -0.102443D-02  0.172115D-02  0.481338D-03 -0.614979D-02
     14  0.102174D-02 -0.211973D-02 -0.173703D-02 -0.480733D-03  0.614379D-02
                6             7             8             9            10 
      6  0.310874D-01
      7 -0.136623D-01  0.198231D-01
      8 -0.331296D-02  0.118856D-01  0.310710D-01
      9  0.118852D-01 -0.859486D-02 -0.136596D-01  0.198185D-01
     10 -0.169635D-01 -0.353706D-02 -0.169571D-01 -0.353192D-02  0.275505D-01
     11  0.515673D-02 -0.835096D-02  0.515562D-02 -0.835317D-02 -0.332519D-02
     12  0.113716D-01  0.505414D-03  0.113617D-01  0.512061D-03 -0.109708D-01
     13  0.188813D-01 -0.643471D-02 -0.750519D-02  0.694303D-02 -0.549115D-02
     14  0.750969D-02 -0.694013D-02 -0.188668D-01  0.643097D-02  0.547969D-02
               11            12            13            14 
     11  0.180638D-01
     12 -0.243336D-02  0.147776D-01
     13 -0.121528D-02  0.739286D-02  0.158671D-01
     14  0.121808D-02 -0.738473D-02  0.847426D-02  0.158590D-01
 Leave Link  716 at Tue Apr  9 22:11:30 2024, MaxMem=   104857600 cpu:               0.0 elap:               0.0
 (Enter /opt/g16/l103.exe)

 GradGradGradGradGradGradGradGradGradGradGradGradGradGradGradGradGradGrad
 Berny optimization.
 Red2BG is reusing G-inverse.
 Internal  Forces:  Max     0.000058222 RMS     0.000027050
 Search for a saddle point.
 Step number   1 out of a maximum of   24
 All quantities printed in internal units (Hartrees-Bohrs-Radians)
 Swapping is turned off.
 Second derivative matrix not updated -- analytic derivatives used.
 The second derivative matrix:
                          R1        R2        R3        R4        A1
           R1           0.40167
           R2          -0.00934   0.40152
           R3          -0.00934  -0.00933   0.40139
           R4           0.01517   0.01517   0.01517  -0.05848
           A1           0.00662   0.00661  -0.00386   0.00161   0.01638
           A2           0.01027  -0.00272   0.01146   0.00326  -0.00812
           A3          -0.01715   0.00287   0.00106  -0.00226  -0.00629
           A4          -0.00272   0.01028   0.01147   0.00326  -0.00811
           A5           0.00287  -0.01714   0.00106  -0.00226  -0.00629
           A6           0.00077   0.00076  -0.02029  -0.00322   0.01244
           D1           0.01180   0.01179   0.00760   0.00535   0.01070
           D2           0.00109   0.00110   0.00346   0.00096  -0.01229
           D3           0.00211  -0.00102   0.00172   0.00048  -0.00615
           D4           0.00102  -0.00212  -0.00174  -0.00048   0.00614
                          A2        A3        A4        A5        A6
           A2           0.03109
           A3          -0.01366   0.01982
           A4          -0.00331   0.01189   0.03107
           A5           0.01189  -0.00859  -0.01366   0.01982
           A6          -0.01696  -0.00354  -0.01696  -0.00353   0.02755
           D1           0.00516  -0.00835   0.00516  -0.00835  -0.00333
           D2           0.01137   0.00051   0.01136   0.00051  -0.01097
           D3           0.01888  -0.00643  -0.00751   0.00694  -0.00549
           D4           0.00751  -0.00694  -0.01887   0.00643   0.00548
                          D1        D2        D3        D4
           D1           0.01806
           D2          -0.00243   0.01478
           D3          -0.00122   0.00739   0.01587
           D4           0.00122  -0.00738   0.00847   0.01586
 ITU=  0
     Eigenvalues ---   -0.06051   0.01282   0.01289   0.03461   0.07208
     Eigenvalues ---    0.07261   0.38696   0.41236   0.41259
 Eigenvectors required to have negative eigenvalues:
                          R4        D1        R2        R1        R3
   1                    0.99616  -0.04498  -0.03162  -0.03161  -0.03129
                          A4        A2        A6        A5        A3
   1                   -0.02348  -0.02348   0.02221   0.01942   0.01939
 RFO step:  Lambda0=3.836422046D-08 Lambda=-1.10973100D-07.
 Linear search not attempted -- option 19 set.
 Iteration  1 RMS(Cart)=  0.00051885 RMS(Int)=  0.00000030
 Iteration  2 RMS(Cart)=  0.00000020 RMS(Int)=  0.00000021
 ITry= 1 IFail=0 DXMaxC= 1.19D-03 DCOld= 1.00D+10 DXMaxT= 3.00D-01 DXLimC= 3.00D+00 Rises=F
 Variable       Old X    -DE/DX   Delta X   Delta X   Delta X     New X
                                 (Linear)    (Quad)   (Total)
    R1        1.94054  -0.00002   0.00000  -0.00011  -0.00011   1.94043
    R2        1.94054  -0.00004   0.00000  -0.00013  -0.00013   1.94040
    R3        1.94054  -0.00006   0.00000  -0.00015  -0.00015   1.94039
    R4        2.88874   0.00005   0.00000  -0.00072  -0.00072   2.88802
    A1        1.88630   0.00000   0.00000   0.00022   0.00022   1.88652
    A2        1.88631   0.00002   0.00000   0.00040   0.00040   1.88671
    A3        1.93436  -0.00002   0.00000  -0.00121  -0.00121   1.93315
    A4        1.88630   0.00002   0.00000   0.00064   0.00064   1.88693
    A5        1.93436  -0.00001   0.00000  -0.00033  -0.00033   1.93403
    A6        1.93441  -0.00001   0.00000   0.00035   0.00035   1.93476
    D1        2.03745   0.00002   0.00000   0.00080   0.00080   2.03825
    D2       -2.09438   0.00002   0.00000   0.00074   0.00074  -2.09364
    D3        2.09441   0.00000   0.00000  -0.00006  -0.00006   2.09434
    D4       -2.09440  -0.00002   0.00000  -0.00081  -0.00081  -2.09521
         Item               Value     Threshold  Converged?
 Maximum Force            0.000058     0.000450     YES
 RMS     Force            0.000027     0.000300     YES
 Maximum Displacement     0.001189     0.001800     YES
 RMS     Displacement     0.000519     0.001200     YES
 Predicted change in Energy=-3.630443D-08
 Optimization completed.
    -- Stationary point found.
                           ----------------------------
                           !   Optimized Parameters   !
                           ! (Angstroms and Degrees)  !
 --------------------------                            --------------------------
 ! Name  Definition              Value          Derivative Info.                !
 --------------------------------------------------------------------------------
 ! R1    R(1,5)                  1.0269         -DE/DX =    0.0                 !
 ! R2    R(2,5)                  1.0269         -DE/DX =    0.0                 !
 ! R3    R(3,5)                  1.0269         -DE/DX =   -0.0001              !
 ! R4    R(4,5)                  1.5287         -DE/DX =    0.0                 !
 ! A1    A(1,5,2)              108.0773         -DE/DX =    0.0                 !
 ! A2    A(1,5,3)              108.0773         -DE/DX =    0.0                 !
 ! A3    A(1,5,4)              110.8307         -DE/DX =    0.0                 !
 ! A4    A(2,5,3)              108.0768         -DE/DX =    0.0                 !
 ! A5    A(2,5,4)              110.8309         -DE/DX =    0.0                 !
 ! A6    A(3,5,4)              110.8336         -DE/DX =    0.0                 !
 ! D1    D(1,5,3,2)            116.7374         -DE/DX =    0.0                 !
 ! D2    D(1,5,4,2)           -119.999          -DE/DX =    0.0                 !
 ! D3    D(1,5,4,3)            120.0008         -DE/DX =    0.0                 !
 ! D4    D(2,5,4,3)           -120.0002         -DE/DX =    0.0                 !
 --------------------------------------------------------------------------------
 Largest change from initial coordinates is atom    4       0.000 Angstoms.
 GradGradGradGradGradGradGradGradGradGradGradGradGradGradGradGradGradGrad

 Leave Link  103 at Tue Apr  9 22:11:30 2024, MaxMem=   104857600 cpu:               0.0 elap:               0.0
 (Enter /opt/g16/l202.exe)
                          Input orientation:                          
 ---------------------------------------------------------------------
 Center     Atomic      Atomic             Coordinates (Angstroms)
 Number     Number       Type             X           Y           Z
 ---------------------------------------------------------------------
      1          1           0       -0.953216   -0.111992   -0.389354
      2          1           0        0.379590    0.881514   -0.389364
      3          1           0        0.573592   -0.769478   -0.389443
      4          1           0        0.000028   -0.000028    1.504454
      5          7           0        0.000000   -0.000001   -0.024200
 ---------------------------------------------------------------------
                    Distance matrix (angstroms):
                    1          2          3          4          5
     1  H    0.000000
     2  H    1.662355   0.000000
     3  H    1.662357   1.662351   0.000000
     4  H    2.123139   2.123142   2.123175   0.000000
     5  N    1.026889   1.026889   1.026890   1.528654   0.000000
 Stoichiometry    H4N(1-)
 Framework group  C1[X(H4N)]
 Deg. of freedom     9
 Full point group                 C1      NOp   1
 RotChk:  IX=0 Diff= 3.39D-11
 Largest Abelian subgroup         C1      NOp   1
 Largest concise Abelian subgroup C1      NOp   1
                         Standard orientation:                         
 ---------------------------------------------------------------------
 Center     Atomic      Atomic             Coordinates (Angstroms)
 Number     Number       Type             X           Y           Z
 ---------------------------------------------------------------------
      1          1           0        0.404526    0.953215   -0.111993
      2          1           0        0.404536   -0.379590    0.881513
      3          1           0        0.404614   -0.573592   -0.769479
      4          1           0       -1.489282   -0.000028   -0.000029
      5          7           0        0.039372   -0.000001   -0.000002
 ---------------------------------------------------------------------
 Rotational constants (GHZ):         181.4616937         122.0652663         122.0649215
 Leave Link  202 at Tue Apr  9 22:11:30 2024, MaxMem=   104857600 cpu:               0.0 elap:               0.0
 (Enter /opt/g16/l716.exe)
 Rotating derivatives to standard orientation.
 Dipole        = 0.00000000D+00 0.00000000D+00 0.00000000D+00
 Full mass-weighted force constant matrix:
 Low frequencies ----1294.3971  -30.3550  -18.7734    0.1330    0.7818    0.8137
 Low frequencies ---   17.8820  490.1908  490.2180
 ******    1 imaginary frequencies (negative Signs) ****** 
 Diagonal vibrational polarizability:
        0.0000000       0.0000000       0.0000000
 Harmonic frequencies (cm**-1), IR intensities (KM/Mole), Raman scattering
 activities (A**4/AMU), depolarization ratios for plane and unpolarized
 incident light, reduced masses (AMU), force constants (mDyne/A),
 and normal coordinates:
                      1                      2                      3
                      A                      A                      A
 Frequencies --  -1294.3970               490.1890               490.2156
 Red. masses --      1.0552                 1.0881                 1.0881
 Frc consts  --      1.0417                 0.1540                 0.1541
 IR Inten    --      0.0000                 0.0000                 0.0000
  Atom  AN      X      Y      Z        X      Y      Z        X      Y      Z
     1   1    -0.05   0.04  -0.00    -0.22   0.06   0.16    -0.54   0.10  -0.08
     2   1    -0.05  -0.01   0.03    -0.36   0.10   0.12     0.46   0.14  -0.04
     3   1    -0.05  -0.02  -0.03     0.57   0.05   0.11     0.08   0.15  -0.09
     4   1     0.99   0.00   0.00     0.00   0.31   0.57     0.00   0.57  -0.31
     5   7    -0.06   0.00   0.00     0.00  -0.04  -0.07     0.00  -0.07   0.04
                      4                      5                      6
                      A                      A                      A
 Frequencies --   1100.0163              1601.7050              1602.4397
 Red. masses --      1.1868                 1.0621                 1.0621
 Frc consts  --      0.8461                 1.6054                 1.6069
 IR Inten    --      0.0000                 0.0000                 0.0000
  Atom  AN      X      Y      Z        X      Y      Z        X      Y      Z
     1   1     0.54  -0.19   0.02     0.26  -0.15  -0.16     0.06   0.05   0.73
     2   1     0.54   0.07  -0.17    -0.18   0.47   0.30     0.19   0.52   0.11
     3   1     0.54   0.11   0.15    -0.08   0.56  -0.47    -0.26  -0.25   0.02
     4   1     0.01   0.00   0.00     0.00  -0.03   0.01     0.00  -0.01  -0.03
     5   7    -0.12  -0.00  -0.00    -0.00  -0.06   0.02    -0.00  -0.02  -0.06
                      7                      8                      9
                      A                      A                      A
 Frequencies --   3205.0389              3436.6841              3437.3417
 Red. masses --      1.0198                 1.0963                 1.0963
 Frc consts  --      6.1721                 7.6290                 7.6318
 IR Inten    --      0.0000                 0.0000                 0.0000
  Atom  AN      X      Y      Z        X      Y      Z        X      Y      Z
     1   1     0.16   0.55  -0.06     0.06   0.18  -0.04     0.26   0.74  -0.08
     2   1     0.16  -0.22   0.51     0.19  -0.23   0.51    -0.18   0.20  -0.49
     3   1     0.16  -0.33  -0.44    -0.25   0.44   0.59    -0.07   0.12   0.18
     4   1    -0.06  -0.00  -0.00    -0.00   0.01   0.02    -0.00   0.02  -0.01
     5   7    -0.03   0.00   0.00    -0.00  -0.03  -0.08    -0.00  -0.08   0.03

 -------------------
 - Thermochemistry -
 -------------------
 Temperature   298.150 Kelvin.  Pressure   1.00000 Atm.
 Atom     1 has atomic number  1 and mass   1.00783
 Atom     2 has atomic number  1 and mass   1.00783
 Atom     3 has atomic number  1 and mass   1.00783
 Atom     4 has atomic number  1 and mass   1.00783
 Atom     5 has atomic number  7 and mass  14.00307
 Molecular mass:    18.03437 amu.
 Principal axes and moments of inertia in atomic units:
                           1         2         3
     Eigenvalues --     9.94558  14.78505  14.78509
           X            1.00000   0.00000   0.00000
           Y           -0.00000   1.00000  -0.00000
           Z           -0.00000   0.00000   1.00000
 This molecule is an asymmetric top.
 Rotational symmetry number  1.
 Rotational temperatures (Kelvin)      8.70879     5.85821     5.85819
 Rotational constants (GHZ):         181.46169   122.06527   122.06492
    1 imaginary frequencies ignored.
 Zero-point vibrational energy      91894.9 (Joules/Mol)
                                   21.96341 (Kcal/Mol)
 Warning -- explicit consideration of   2 degrees of freedom as
           vibrations may cause significant error
 Vibrational temperatures:    705.27   705.31  1582.68  2304.50  2305.55
          (Kelvin)           4611.34  4944.62  4945.57
 
 Zero-point correction=                           0.035001 (Hartree/Particle)
 Thermal correction to Energy=                    0.038328
 Thermal correction to Enthalpy=                  0.039272
 Thermal correction to Gibbs Free Energy=         0.014805
 Sum of electronic and zero-point Energies=            -56.938698
 Sum of electronic and thermal Energies=               -56.935372
 Sum of electronic and thermal Enthalpies=             -56.934427
 Sum of electronic and thermal Free Energies=          -56.958894
 
                     E (Thermal)             CV                S
                      KCal/Mol        Cal/Mol-Kelvin    Cal/Mol-Kelvin
 Total                   24.051              8.890             51.494
 Electronic               0.000              0.000              0.000
 Translational            0.889              2.981             34.612
 Rotational               0.889              2.981             15.438
 Vibrational             22.274              2.928              1.444
 Vibration     1          0.846              1.272              0.683
 Vibration     2          0.846              1.272              0.683
                       Q            Log10(Q)             Ln(Q)
 Total Bot       0.154873D-06         -6.810023        -15.680658
 Total V=0       0.194657D+10          9.289271         21.389336
 Vib (Bot)       0.974737D-16        -16.011113        -36.866949
 Vib (Bot)    1  0.338193D+00         -0.470836         -1.084140
 Vib (Bot)    2  0.338166D+00         -0.470869         -1.084217
 Vib (V=0)       0.122513D+01          0.088181          0.203045
 Vib (V=0)    1  0.110363D+01          0.042825          0.098609
 Vib (V=0)    2  0.110362D+01          0.042819          0.098595
 Electronic      0.100000D+01          0.000000          0.000000
 Translational   0.301027D+07          6.478605         14.917540
 Rotational      0.527818D+03          2.722484          6.268751
 ***** Axes restored to original set *****
 -------------------------------------------------------------------
 Center     Atomic                   Forces (Hartrees/Bohr)
 Number     Number              X              Y              Z
 -------------------------------------------------------------------
      1        1           0.000007124    0.000011234    0.000033002
      2        1          -0.000033358   -0.000018212    0.000033442
      3        1          -0.000039003    0.000030392    0.000033980
      4        1           0.000000321   -0.000000293    0.000044778
      5        7           0.000070940   -0.000025327   -0.000158987
 -------------------------------------------------------------------
 Cartesian Forces:  Max     0.000158987 RMS     0.000051887
 Force constants in Cartesian coordinates: 
                1             2             3             4             5 
      1  0.362317D+00
      2  0.362459D-01  0.579278D-01
      3  0.110360D+00  0.129485D-01  0.599832D-01
      4 -0.703797D-02 -0.308731D-01  0.164039D-01  0.102510D+00
      5  0.886775D-02 -0.478143D-03  0.318960D-02  0.113611D+00  0.317527D+00
      6 -0.774310D-02 -0.148093D-01  0.221766D-02 -0.438947D-01 -0.102038D+00
      7 -0.116499D-01  0.282097D-01  0.166996D-01  0.740723D-02 -0.172061D-01
      8 -0.115276D-01  0.412959D-02  0.700902D-03  0.225296D-01 -0.149329D-01
      9 -0.109664D-01  0.126115D-01  0.221886D-02 -0.895484D-02  0.141118D-01
     10  0.719471D-02  0.993365D-03 -0.176600D-02  0.822156D-04  0.311361D-02
     11  0.993569D-03 -0.114174D-02 -0.207552D-03  0.311331D-02  0.597080D-02
     12 -0.158323D-01 -0.185996D-02 -0.781601D-03  0.630412D-02  0.146410D-01
     13 -0.350826D+00 -0.345780D-01 -0.141705D+00 -0.102956D+00 -0.108383D+00
     14 -0.345783D-01 -0.604351D-01 -0.166310D-01 -0.108386D+00 -0.308084D+00
     15 -0.758413D-01 -0.889343D-02 -0.636327D-01  0.301508D-01  0.701175D-01
                6             7             8             9            10 
      6  0.599851D-01
      7 -0.544163D-02  0.165240D+00
      8 -0.158046D-01 -0.149855D+00  0.254607D+00
      9  0.221916D-02 -0.663623D-01  0.890640D-01  0.600013D-01
     10  0.703253D-03  0.180286D-02 -0.410718D-02  0.106189D-02  0.381724D-02
     11  0.163302D-02 -0.410708D-02  0.425085D-02 -0.142455D-02  0.000000D+00
     12 -0.781668D-03  0.952702D-02 -0.127810D-01 -0.781686D-03  0.000000D+00
     13  0.563754D-01 -0.162792D+00  0.142959D+00  0.852219D-01 -0.128933D-01
     14  0.131025D+00  0.142962D+00 -0.248049D+00 -0.114366D+00  0.000000D+00
     15 -0.636348D-01  0.455914D-01 -0.611982D-01 -0.636522D-01  0.000000D+00
               11            12            13            14            15 
     11  0.381714D-02
     12  0.000000D+00 -0.585119D-01
     13  0.000000D+00  0.179632D-05  0.629453D+00
     14 -0.128933D-01  0.000000D+00  0.193144D-05  0.629447D+00
     15 -0.101850D-05  0.607845D-01  0.105983D-03 -0.277903D-04  0.130191D+00
 Red2BG is reusing G-inverse.
 Force constants in internal coordinates: 
                1             2             3             4             5 
      1  0.401669D+00
      2 -0.933758D-02  0.401520D+00
      3 -0.933630D-02 -0.933417D-02  0.401394D+00
      4  0.151679D-01  0.151674D-01  0.151677D-01 -0.584830D-01
      5  0.662230D-02  0.661394D-02 -0.385942D-02  0.160723D-02  0.163827D-01
      6  0.102729D-01 -0.271973D-02  0.114581D-01  0.325764D-02 -0.811752D-02
      7 -0.171512D-01  0.286642D-02  0.105635D-02 -0.226117D-02 -0.629065D-02
      8 -0.272108D-02  0.102753D-01  0.114712D-01  0.325834D-02 -0.811128D-02
      9  0.286991D-02 -0.171402D-01  0.105528D-02 -0.226346D-02 -0.629346D-02
     10  0.768046D-03  0.764874D-03 -0.202925D-01 -0.321986D-02  0.124378D-01
     11  0.118019D-01  0.117942D-01  0.760479D-02  0.534602D-02  0.106966D-01
     12  0.108976D-02  0.109529D-02  0.345819D-02  0.962071D-03 -0.122936D-01
     13  0.211150D-02 -0.102443D-02  0.172115D-02  0.481338D-03 -0.614979D-02
     14  0.102174D-02 -0.211973D-02 -0.173703D-02 -0.480733D-03  0.614379D-02
                6             7             8             9            10 
      6  0.310874D-01
      7 -0.136623D-01  0.198231D-01
      8 -0.331296D-02  0.118856D-01  0.310710D-01
      9  0.118852D-01 -0.859486D-02 -0.136596D-01  0.198185D-01
     10 -0.169635D-01 -0.353706D-02 -0.169571D-01 -0.353192D-02  0.275505D-01
     11  0.515673D-02 -0.835096D-02  0.515562D-02 -0.835317D-02 -0.332519D-02
     12  0.113716D-01  0.505414D-03  0.113617D-01  0.512061D-03 -0.109708D-01
     13  0.188813D-01 -0.643471D-02 -0.750519D-02  0.694303D-02 -0.549115D-02
     14  0.750969D-02 -0.694013D-02 -0.188668D-01  0.643097D-02  0.547969D-02
               11            12            13            14 
     11  0.180638D-01
     12 -0.243336D-02  0.147776D-01
     13 -0.121528D-02  0.739286D-02  0.158671D-01
     14  0.121808D-02 -0.738473D-02  0.847426D-02  0.158590D-01
 Leave Link  716 at Tue Apr  9 22:11:30 2024, MaxMem=   104857600 cpu:               0.0 elap:               0.0
 (Enter /opt/g16/l9999.exe)
 Unable to Open any file for archive entry.
 1\1\GINC-DESKTOP-1D9QDE1\Freq\External='python3 -u ../pes/h4n_anion_pe
 s.py'\ZDO\H4N1(1-)\JH-LI\09-Apr-2024\0\\#p external="python3 -u ../pes
 /h4n_anion_pes.py" opt=(nomicro,ts,noeigen,calcall)\\H^- + NH3 -> NhH4
 ^-\\-1,1\H,-0.9532156459,-0.1119924583,-0.3893540725\H,0.379589563,0.8
 815138885,-0.3893639326\H,0.5735923055,-0.7694776066,-0.389442572\H,0.
 0000275874,-0.0000283937,1.5044539435\N,0.0000004454,-0.0000011104,-0.
 0242000996\\Version=ES64L-G16RevC.01\HF=-56.9736993\RMSD=0.000e+00\RMS
 F=5.189e-05\ZeroPoint=0.0350009\Thermal=0.0383277\ETot=-56.9353715\HTo
 t=-56.9344273\GTot=-56.9588938\Dipole=0.,0.,0.\PG=C01 [X(H4N1)]\NImag=
 1\\0.36231657,0.03624590,0.05792777,0.11035965,0.01294847,0.05998320,-
 0.00703797,-0.03087313,0.01640394,0.10251044,0.00886775,-0.00047814,0.
 00318960,0.11361094,0.31752686,-0.00774310,-0.01480935,0.00221766,-0.0
 4389469,-0.10203834,0.05998508,-0.01164992,0.02820968,0.01669960,0.007
 40723,-0.01720610,-0.00544163,0.16523970,-0.01152758,0.00412959,0.0007
 0090,0.02252965,-0.01493288,-0.01580464,-0.14985491,0.25460720,-0.0109
 6637,0.01261152,0.00221886,-0.00895484,0.01411181,0.00221916,-0.066362
 29,0.08906403,0.06000134,0.00719471,0.00099336,-0.00176600,0.00008222,
 0.00311361,0.00070325,0.00180286,-0.00410718,0.00106189,0.00381724,0.0
 0099357,-0.00114174,-0.00020755,0.00311331,0.00597080,0.00163302,-0.00
 410708,0.00425085,-0.00142455,0.00000013,0.00381714,-0.01583229,-0.001
 85996,-0.00078160,0.00630412,0.01464103,-0.00078167,0.00952702,-0.0127
 8102,-0.00078169,-0.00000012,0.00000010,-0.05851190,-0.35082562,-0.034
 57795,-0.14170501,-0.10295647,-0.10838349,0.05637538,-0.16279232,0.142
 95945,0.08522185,-0.01289333,0.00000007,0.00000180,0.62945319,-0.03457
 826,-0.06043506,-0.01663099,-0.10838586,-0.30808449,0.13102498,0.14296
 212,-0.24804859,-0.11436585,0.00000007,-0.01289335,-0.00000035,0.00000
 193,0.62944697,-0.07584129,-0.00889343,-0.06363267,0.03015079,0.070117
 53,-0.06363477,0.04559138,-0.06119816,-0.06365222,0.00000098,-0.000001
 02,0.06078452,0.00010598,-0.00002779,0.13019105\\-0.00000712,-0.000011
 23,-0.00003300,0.00003336,0.00001821,-0.00003344,0.00003900,-0.0000303
 9,-0.00003398,-0.00000032,0.00000029,-0.00004478,-0.00007094,0.0000253
 3,0.00015899\\\@
 The archive entry for this job was punched.


 When cryptography is outlawed, bayl bhgynjf jvyy unir cevinpl.
 Job cpu time:       0 days  0 hours  0 minutes  0.5 seconds.
 Elapsed time:       0 days  0 hours  0 minutes  0.8 seconds.
 File lengths (MBytes):  RWF=      6 Int=      0 D2E=      0 Chk=      1 Scr=      1
 Normal termination of Gaussian 16 at Tue Apr  9 22:11:30 2024.
