 Entering Gaussian System, Link 0=g16
 Initial command:
 /opt/g16/l1.exe "/home/jh-li/scratch/g16/Gau-1448911.inp" -scrdir="/home/jh-li/scratch/g16/"
 Entering Link 1 = /opt/g16/l1.exe PID=   1448914.
  
 Copyright (c) 1988-2019, Gaussian, Inc.  All Rights Reserved.
  
 This is part of the Gaussian(R) 16 program.  It is based on
 the Gaussian(R) 09 system (copyright 2009, Gaussian, Inc.),
 the Gaussian(R) 03 system (copyright 2003, Gaussian, Inc.),
 the Gaussian(R) 98 system (copyright 1998, Gaussian, Inc.),
 the Gaussian(R) 94 system (copyright 1995, Gaussian, Inc.),
 the Gaussian 92(TM) system (copyright 1992, Gaussian, Inc.),
 the Gaussian 90(TM) system (copyright 1990, Gaussian, Inc.),
 the Gaussian 88(TM) system (copyright 1988, Gaussian, Inc.),
 the Gaussian 86(TM) system (copyright 1986, Carnegie Mellon
 University), and the Gaussian 82(TM) system (copyright 1983,
 Carnegie Mellon University). Gaussian is a federally registered
 trademark of Gaussian, Inc.
  
 This software contains proprietary and confidential information,
 including trade secrets, belonging to Gaussian, Inc.
  
 This software is provided under written license and may be
 used, copied, transmitted, or stored only in accord with that
 written license.
  
 The following legend is applicable only to US Government
 contracts under FAR:
  
                    RESTRICTED RIGHTS LEGEND
  
 Use, reproduction and disclosure by the US Government is
 subject to restrictions as set forth in subparagraphs (a)
 and (c) of the Commercial Computer Software - Restricted
 Rights clause in FAR 52.227-19.
  
 Gaussian, Inc.
 340 Quinnipiac St., Bldg. 40, Wallingford CT 06492
  
  
 ---------------------------------------------------------------
 Warning -- This program may not be used in any manner that
 competes with the business of Gaussian, Inc. or will provide
 assistance to any competitor of Gaussian, Inc.  The licensee
 of this program is prohibited from giving any competitor of
 Gaussian, Inc. access to this program.  By using this program,
 the user acknowledges that Gaussian, Inc. is engaged in the
 business of creating and licensing software in the field of
 computational chemistry and represents and warrants to the
 licensee that it is not a competitor of Gaussian, Inc. and that
 it will not use this program in any manner prohibited above.
 ---------------------------------------------------------------
  

 Cite this work as:
 Gaussian 16, Revision C.01,
 M. J. Frisch, G. W. Trucks, H. B. Schlegel, G. E. Scuseria, 
 M. A. Robb, J. R. Cheeseman, G. Scalmani, V. Barone, 
 G. A. Petersson, H. Nakatsuji, X. Li, M. Caricato, A. V. Marenich, 
 J. Bloino, B. G. Janesko, R. Gomperts, B. Mennucci, H. P. Hratchian, 
 J. V. Ortiz, A. F. Izmaylov, J. L. Sonnenberg, D. Williams-Young, 
 F. Ding, F. Lipparini, F. Egidi, J. Goings, B. Peng, A. Petrone, 
 T. Henderson, D. Ranasinghe, V. G. Zakrzewski, J. Gao, N. Rega, 
 G. Zheng, W. Liang, M. Hada, M. Ehara, K. Toyota, R. Fukuda, 
 J. Hasegawa, M. Ishida, T. Nakajima, Y. Honda, O. Kitao, H. Nakai, 
 T. Vreven, K. Throssell, J. A. Montgomery, Jr., J. E. Peralta, 
 F. Ogliaro, M. J. Bearpark, J. J. Heyd, E. N. Brothers, K. N. Kudin, 
 V. N. Staroverov, T. A. Keith, R. Kobayashi, J. Normand, 
 K. Raghavachari, A. P. Rendell, J. C. Burant, S. S. Iyengar, 
 J. Tomasi, M. Cossi, J. M. Millam, M. Klene, C. Adamo, R. Cammi, 
 J. W. Ochterski, R. L. Martin, K. Morokuma, O. Farkas, 
 J. B. Foresman, and D. J. Fox, Gaussian, Inc., Wallingford CT, 2019.
 
 ******************************************
 Gaussian 16:  ES64L-G16RevC.01  3-Jul-2019
                10-Apr-2024 
 ******************************************
 %nproc=1
 Will use up to    1 processors via shared memory.
 %chk=CH2OH-opt-freq.chk
 -------------------------------------------------------
 #p external="python3 -u ../pes/h3co_pes.py" opt=nomicro
 -------------------------------------------------------
 1/18=20,19=15,26=1,38=1/1,3;
 2/9=110,12=2,17=6,18=5,40=1/2;
 3/11=9,25=1,30=1,41=9900000,43=2,71=1/1;
 4/20=17,22=1,24=3,113=1,114=1/2;
 6/7=2,8=2,9=2,10=2/1;
 7/44=-1/16;
 1/18=20,19=15,26=1/3(2);
 2/9=110/2;
 99//99;
 2/9=110/2;
 3/11=9,25=1,30=1,41=9900000,43=2,71=1/1;
 4/16=2,20=17,22=1,24=3,113=1,114=1/2;
 7/44=-1/16;
 1/18=20,19=15,26=1/3(-4);
 2/9=110/2;
 6/7=2,8=2,9=2,10=2/1;
 99/9=10/99;
 Leave Link    1 at Wed Apr 10 09:21:18 2024, MaxMem=           0 cpu:               0.0 elap:               0.0
 (Enter /opt/g16/l101.exe)
 -----
 CH2OH
 -----
 Symbolic Z-matrix:
 Charge =  0 Multiplicity = 2
 H                    -0.81603  -0.06521  -1.00514 
 H                     0.92459   0.13152   1.22314 
 H                    -0.95681   0.2046    1.2003 
 C                    -0.01626  -0.03968   0.72693 
 O                     0.06565   0.01272  -0.63507 
 
 Add atom      4 valence  3 ND=      2 dihedral       5      3      4      2
 ITRead=  0  0  0  0  0
 MicOpt= -1 -1 -1 -1 -1
 NAtoms=      5 NQM=        5 NQMF=       0 NMMI=      0 NMMIF=      0
                NMic=       0 NMicF=      0.
                    Isotopes and Nuclear Properties:
 (Nuclear quadrupole moments (NQMom) in fm**2, nuclear magnetic moments (NMagM)
  in nuclear magnetons)

  Atom         1           2           3           4           5
 IAtWgt=           1           1           1          12          16
 AtmWgt=   1.0078250   1.0078250   1.0078250  12.0000000  15.9949146
 NucSpn=           1           1           1           0           0
 AtZEff=  -0.0000000  -0.0000000  -0.0000000  -0.0000000  -0.0000000
 NQMom=    0.0000000   0.0000000   0.0000000   0.0000000   0.0000000
 NMagM=    2.7928460   2.7928460   2.7928460   0.0000000   0.0000000
 AtZNuc=   1.0000000   1.0000000   1.0000000   6.0000000   8.0000000
 Leave Link  101 at Wed Apr 10 09:21:18 2024, MaxMem=   104857600 cpu:               0.2 elap:               0.2
 (Enter /opt/g16/l103.exe)

 GradGradGradGradGradGradGradGradGradGradGradGradGradGradGradGradGradGrad
 Berny optimization.
 Initialization pass.
                           ----------------------------
                           !    Initial Parameters    !
                           ! (Angstroms and Degrees)  !
 --------------------------                            --------------------------
 ! Name  Definition              Value          Derivative Info.                !
 --------------------------------------------------------------------------------
 ! R1    R(1,5)                  0.9594         estimate D2E/DX2                !
 ! R2    R(2,4)                  1.0774         estimate D2E/DX2                !
 ! R3    R(3,4)                  1.0809         estimate D2E/DX2                !
 ! R4    R(4,5)                  1.3655         estimate D2E/DX2                !
 ! A1    A(2,4,3)              121.4837         estimate D2E/DX2                !
 ! A2    A(2,4,5)              113.6358         estimate D2E/DX2                !
 ! A3    A(3,4,5)              118.7085         estimate D2E/DX2                !
 ! A4    A(1,5,4)              109.0575         estimate D2E/DX2                !
 ! D1    D(5,3,4,2)            150.6242         estimate D2E/DX2                !
 ! D2    D(2,4,5,1)           -174.7218         estimate D2E/DX2                !
 ! D3    D(3,4,5,1)            -21.8916         estimate D2E/DX2                !
 --------------------------------------------------------------------------------
 Trust Radius=3.00D-01 FncErr=1.00D-07 GrdErr=1.00D-07 EigMax=2.50D+02 EigMin=1.00D-04
 Number of steps in this run=     21 maximum allowed number of steps=    100.
 GradGradGradGradGradGradGradGradGradGradGradGradGradGradGradGradGradGrad

 Leave Link  103 at Wed Apr 10 09:21:18 2024, MaxMem=   104857600 cpu:               0.0 elap:               0.0
 (Enter /opt/g16/l202.exe)
                          Input orientation:                          
 ---------------------------------------------------------------------
 Center     Atomic      Atomic             Coordinates (Angstroms)
 Number     Number       Type             X           Y           Z
 ---------------------------------------------------------------------
      1          1           0       -0.816029   -0.065210   -1.005137
      2          1           0        0.924589    0.131519    1.223142
      3          1           0       -0.956808    0.204600    1.200303
      4          6           0       -0.016264   -0.039682    0.726927
      5          8           0        0.065648    0.012723   -0.635067
 ---------------------------------------------------------------------
                    Distance matrix (angstroms):
                    1          2          3          4          5
     1  H    0.000000
     2  H    2.834375   0.000000
     3  H    2.226339   1.882955   0.000000
     4  C    1.907962   1.077379   1.080917   0.000000
     5  O    0.959365   2.050569   2.109696   1.365460   0.000000
 Stoichiometry    CH3O(2)
 Framework group  C1[X(CH3O)]
 Deg. of freedom     9
 Full point group                 C1      NOp   1
 Largest Abelian subgroup         C1      NOp   1
 Largest concise Abelian subgroup C1      NOp   1
                         Standard orientation:                         
 ---------------------------------------------------------------------
 Center     Atomic      Atomic             Coordinates (Angstroms)
 Number     Number       Type             X           Y           Z
 ---------------------------------------------------------------------
      1          1           0        1.087828    0.734701   -0.054905
      2          1           0       -1.232774   -0.885001    0.103383
      3          1           0       -1.112595    0.993135    0.164033
      4          6           0       -0.684059    0.027121   -0.063023
      5          8           0        0.670237   -0.125695    0.020703
 ---------------------------------------------------------------------
 Rotational constants (GHZ):         193.4232862          29.9832992          26.1889955
 Leave Link  202 at Wed Apr 10 09:21:18 2024, MaxMem=   104857600 cpu:               0.0 elap:               0.0
 (Enter /opt/g16/l301.exe)
 Standard basis: STO-3G (5D, 7F)
 Ernie: Thresh=  0.10000D-02 Tol=  0.10000D-05 Strict=F.
 There are    13 symmetry adapted cartesian basis functions of A   symmetry.
 There are    13 symmetry adapted basis functions of A   symmetry.
    13 basis functions,    39 primitive gaussians,    13 cartesian basis functions
     9 alpha electrons        8 beta electrons
       nuclear repulsion energy        35.3399896337 Hartrees.
 IExCor=    0 DFT=F Ex=HF Corr=None ExCW=0 ScaHFX=  1.000000
 ScaDFX=  1.000000  1.000000  1.000000  1.000000 ScalE2=  1.000000  1.000000
 IRadAn=      5 IRanWt=     -1 IRanGd=            0 ICorTp=0 IEmpDi=  4
 NAtoms=    5 NActive=    5 NUniq=    5 SFac= 1.00D+00 NAtFMM=   60 NAOKFM=F Big=F
 Integral buffers will be    131072 words long.
 Raffenetti 2 integral format.
 Two-electron integral symmetry is turned on.
 Leave Link  301 at Wed Apr 10 09:21:18 2024, MaxMem=   104857600 cpu:               0.0 elap:               0.0
 (Enter /opt/g16/l402.exe)
 External calculation of energy and first derivatives.
 Running external command "python3 -u ../pes/h3co_pes.py R"
         input file       "/home/jh-li/scratch/g16/Gau-1448914.EIn"
         output file      "/home/jh-li/scratch/g16/Gau-1448914.EOu"
         message file     "/home/jh-li/scratch/g16/Gau-1448914.EMs"
         fchk file        "/home/jh-li/scratch/g16/Gau-1448914.EFC"
         mat. el file     "/home/jh-li/scratch/g16/Gau-1448914.EUF"
 Recovered energy= -575.301839667     dipole=      0.000000000000      0.000000000000      0.000000000000
 Energy=    -575.301840     NIter=   0.
 Dipole moment=       0.000000       0.000000       0.000000
 Leave Link  402 at Wed Apr 10 09:21:18 2024, MaxMem=   104857600 cpu:               0.0 elap:               0.2
 (Enter /opt/g16/l601.exe)
 Leave Link  601 at Wed Apr 10 09:21:18 2024, MaxMem=   104857600 cpu:               0.0 elap:               0.0
 (Enter /opt/g16/l716.exe)
 Dipole        = 0.00000000D+00 0.00000000D+00 0.00000000D+00
 ***** Axes restored to original set *****
 -------------------------------------------------------------------
 Center     Atomic                   Forces (Hartrees/Bohr)
 Number     Number              X              Y              Z
 -------------------------------------------------------------------
      1        1           0.000217234    0.000829925    0.000013257
      2        1          -0.001513471   -0.000083745   -0.000047356
      3        1           0.000501900   -0.000699795   -0.000235536
      4        6           0.001660696    0.001281180   -0.000715612
      5        8          -0.000869688   -0.001321127    0.000991695
 -------------------------------------------------------------------
 Cartesian Forces:  Max     0.001660696 RMS     0.000902947
 Leave Link  716 at Wed Apr 10 09:21:18 2024, MaxMem=   104857600 cpu:               0.0 elap:               0.0
 (Enter /opt/g16/l103.exe)

 GradGradGradGradGradGradGradGradGradGradGradGradGradGradGradGradGradGrad
 Berny optimization.
 FormGI is forming the generalized inverse of G from B-inverse, IUseBI=4.
 Internal  Forces:  Max     0.001359058 RMS     0.000706913
 Search for a local minimum.
 Step number   1 out of a maximum of   21
 All quantities printed in internal units (Hartrees-Bohrs-Radians)
 RMS Force = .70691D-03 SwitMx=.10000D-02 MixMth= 2
 Mixed Optimization -- En-DIIS/RFO-DIIS
 Second derivative matrix not updated -- first step.
 The second derivative matrix:
                          R1        R2        R3        R4        A1
           R1           0.55610
           R2           0.00000   0.36313
           R3           0.00000   0.00000   0.35884
           R4           0.00000   0.00000   0.00000   0.51859
           A1           0.00000   0.00000   0.00000   0.00000   0.16000
           A2           0.00000   0.00000   0.00000   0.00000   0.00000
           A3           0.00000   0.00000   0.00000   0.00000   0.00000
           A4           0.00000   0.00000   0.00000   0.00000   0.00000
           D1           0.00000   0.00000   0.00000   0.00000   0.00000
           D2           0.00000   0.00000   0.00000   0.00000   0.00000
           D3           0.00000   0.00000   0.00000   0.00000   0.00000
                          A2        A3        A4        D1        D2
           A2           0.16000
           A3           0.00000   0.16000
           A4           0.00000   0.00000   0.16000
           D1           0.00000   0.00000   0.00000   0.00355
           D2           0.00000   0.00000   0.00000   0.00000   0.02149
           D3           0.00000   0.00000   0.00000   0.00000   0.00000
                          D3
           D3           0.02149
 ITU=  0
     Eigenvalues ---    0.01522   0.02149   0.15291   0.16000   0.16000
     Eigenvalues ---    0.35884   0.36313   0.51859   0.55610
 RFO step:  Lambda=-6.98957910D-05 EMin= 1.52242966D-02
 Linear search not attempted -- first point.
 Iteration  1 RMS(Cart)=  0.00959677 RMS(Int)=  0.00017795
 Iteration  2 RMS(Cart)=  0.00017509 RMS(Int)=  0.00003985
 Iteration  3 RMS(Cart)=  0.00000004 RMS(Int)=  0.00003985
 ITry= 1 IFail=0 DXMaxC= 2.16D-02 DCOld= 1.00D+10 DXMaxT= 3.00D-01 DXLimC= 3.00D+00 Rises=F
 Variable       Old X    -DE/DX   Delta X   Delta X   Delta X     New X
                                 (Linear)    (Quad)   (Total)
    R1        1.81294  -0.00028   0.00000  -0.00050  -0.00050   1.81244
    R2        2.03595  -0.00136   0.00000  -0.00374  -0.00374   2.03221
    R3        2.04264  -0.00070   0.00000  -0.00194  -0.00194   2.04070
    R4        2.58035  -0.00105   0.00000  -0.00203  -0.00203   2.57831
    A1        2.12029  -0.00039   0.00000   0.00013   0.00005   2.12034
    A2        1.98332   0.00075   0.00000   0.00813   0.00806   1.99138
    A3        2.07185  -0.00026   0.00000   0.00128   0.00121   2.07306
    A4        1.90341   0.00025   0.00000   0.00155   0.00155   1.90496
    D1        2.62889   0.00044   0.00000   0.02341   0.02340   2.65229
    D2       -3.04947   0.00063   0.00000   0.02211   0.02207  -3.02740
    D3       -0.38208   0.00074   0.00000   0.04167   0.04171  -0.34037
         Item               Value     Threshold  Converged?
 Maximum Force            0.001359     0.000450     NO 
 RMS     Force            0.000707     0.000300     NO 
 Maximum Displacement     0.021555     0.001800     NO 
 RMS     Displacement     0.009576     0.001200     NO 
 Predicted change in Energy=-3.513007D-05
 GradGradGradGradGradGradGradGradGradGradGradGradGradGradGradGradGradGrad

 Leave Link  103 at Wed Apr 10 09:21:18 2024, MaxMem=   104857600 cpu:               0.0 elap:               0.0
 (Enter /opt/g16/l202.exe)
                          Input orientation:                          
 ---------------------------------------------------------------------
 Center     Atomic      Atomic             Coordinates (Angstroms)
 Number     Number       Type             X           Y           Z
 ---------------------------------------------------------------------
      1          1           0       -0.817945   -0.056439   -1.003966
      2          1           0        0.923132    0.135139    1.225363
      3          1           0       -0.955923    0.199748    1.198347
      4          6           0       -0.013823   -0.035815    0.725991
      5          8           0        0.065695    0.001316   -0.635568
 ---------------------------------------------------------------------
                    Distance matrix (angstroms):
                    1          2          3          4          5
     1  H    0.000000
     2  H    2.835130   0.000000
     3  H    2.221453   1.880359   0.000000
     4  C    1.907823   1.075399   1.079889   0.000000
     5  O    0.959100   2.053332   2.108631   1.364385   0.000000
 Stoichiometry    CH3O(2)
 Framework group  C1[X(CH3O)]
 Deg. of freedom     9
 Full point group                 C1      NOp   1
 RotChk:  IX=0 Diff= 1.16D-02
 Largest Abelian subgroup         C1      NOp   1
 Largest concise Abelian subgroup C1      NOp   1
                         Standard orientation:                         
 ---------------------------------------------------------------------
 Center     Atomic      Atomic             Coordinates (Angstroms)
 Number     Number       Type             X           Y           Z
 ---------------------------------------------------------------------
      1          1           0        1.087499    0.735584   -0.039117
      2          1           0       -1.237645   -0.880091    0.106691
      3          1           0       -1.110512    0.995447    0.150800
      4          6           0       -0.683444    0.026283   -0.060135
      5          8           0        0.670165   -0.126080    0.017805
 ---------------------------------------------------------------------
 Rotational constants (GHZ):         194.3127257          30.0125812          26.2006454
 Leave Link  202 at Wed Apr 10 09:21:18 2024, MaxMem=   104857600 cpu:               0.0 elap:               0.0
 (Enter /opt/g16/l301.exe)
 Standard basis: STO-3G (5D, 7F)
 Ernie: Thresh=  0.10000D-02 Tol=  0.10000D-05 Strict=F.
 There are    13 symmetry adapted cartesian basis functions of A   symmetry.
 There are    13 symmetry adapted basis functions of A   symmetry.
    13 basis functions,    39 primitive gaussians,    13 cartesian basis functions
     9 alpha electrons        8 beta electrons
       nuclear repulsion energy        35.3633062955 Hartrees.
 IExCor=    0 DFT=F Ex=HF Corr=None ExCW=0 ScaHFX=  1.000000
 ScaDFX=  1.000000  1.000000  1.000000  1.000000 ScalE2=  1.000000  1.000000
 IRadAn=      5 IRanWt=     -1 IRanGd=            0 ICorTp=0 IEmpDi=  4
 NAtoms=    5 NActive=    5 NUniq=    5 SFac= 1.00D+00 NAtFMM=   60 NAOKFM=F Big=F
 Integral buffers will be    131072 words long.
 Raffenetti 2 integral format.
 Two-electron integral symmetry is turned on.
 Leave Link  301 at Wed Apr 10 09:21:18 2024, MaxMem=   104857600 cpu:               0.1 elap:               0.0
 (Enter /opt/g16/l402.exe)
 External calculation of energy and first derivatives.
 Running external command "python3 -u ../pes/h3co_pes.py R"
         input file       "/home/jh-li/scratch/g16/Gau-1448914.EIn"
         output file      "/home/jh-li/scratch/g16/Gau-1448914.EOu"
         message file     "/home/jh-li/scratch/g16/Gau-1448914.EMs"
         fchk file        "/home/jh-li/scratch/g16/Gau-1448914.EFC"
         mat. el file     "/home/jh-li/scratch/g16/Gau-1448914.EUF"
 Recovered energy= -575.301892977     dipole=      0.000000000000      0.000000000000      0.000000000000
 Energy=    -575.301893     NIter=   0.
 Dipole moment=       0.000000       0.000000       0.000000
 Leave Link  402 at Wed Apr 10 09:21:19 2024, MaxMem=   104857600 cpu:               0.0 elap:               0.2
 (Enter /opt/g16/l716.exe)
 Dipole        = 0.00000000D+00 0.00000000D+00 0.00000000D+00
 ***** Axes restored to original set *****
 -------------------------------------------------------------------
 Center     Atomic                   Forces (Hartrees/Bohr)
 Number     Number              X              Y              Z
 -------------------------------------------------------------------
      1        1           0.000102805    0.000542797    0.000094586
      2        1          -0.000145116    0.000050280   -0.000048161
      3        1          -0.000108764   -0.000417098    0.000044492
      4        6           0.000315689    0.000662959   -0.000619420
      5        8          -0.000167549   -0.000832518    0.000534900
 -------------------------------------------------------------------
 Cartesian Forces:  Max     0.000832518 RMS     0.000404801
 Leave Link  716 at Wed Apr 10 09:21:19 2024, MaxMem=   104857600 cpu:               0.0 elap:               0.0
 (Enter /opt/g16/l103.exe)

 GradGradGradGradGradGradGradGradGradGradGradGradGradGradGradGradGradGrad
 Berny optimization.
 Using GEDIIS/GDIIS optimizer.
 FormGI is forming the generalized inverse of G from B-inverse, IUseBI=4.
 Internal  Forces:  Max     0.000633266 RMS     0.000292851
 Search for a local minimum.
 Step number   2 out of a maximum of   21
 All quantities printed in internal units (Hartrees-Bohrs-Radians)
 RMS Force = .29285D-03 SwitMx=.10000D-02 MixMth= 2
 Mixed Optimization -- En-DIIS/RFO-DIIS
 Swapping is turned off.
 Update second derivatives using D2CorX and points    1    2
 DE= -5.33D-05 DEPred=-3.51D-05 R= 1.52D+00
 TightC=F SS=  1.41D+00  RLast= 5.35D-02 DXNew= 5.0454D-01 1.6060D-01
 Trust test= 1.52D+00 RLast= 5.35D-02 DXMaxT set to 3.00D-01
 The second derivative matrix:
                          R1        R2        R3        R4        A1
           R1           0.55535
           R2          -0.00133   0.38270
           R3          -0.00035   0.01375   0.36810
           R4          -0.00280  -0.00464  -0.00109   0.50814
           A1           0.00148   0.01633   0.00968   0.00572   0.16566
           A2           0.00256  -0.00398  -0.00439   0.00945  -0.01039
           A3           0.00191   0.01647   0.00947   0.00732   0.00442
           A4           0.00008  -0.00539  -0.00359   0.00021  -0.00361
           D1          -0.00044  -0.00702  -0.00430  -0.00173  -0.00304
           D2           0.00095  -0.00133  -0.00154   0.00352  -0.00377
           D3           0.00298   0.01069   0.00493   0.01122  -0.00250
                          A2        A3        A4        D1        D2
           A2           0.15454
           A3          -0.01162   0.16295
           A4           0.00188  -0.00350   0.16139
           D1           0.00393  -0.00261   0.00162   0.00507
           D2          -0.00209  -0.00424   0.00066   0.00142   0.02069
           D3          -0.01231  -0.00437  -0.00167   0.00021  -0.00455
                          D3
           D3           0.01094
 ITU=  1  0
     Eigenvalues ---    0.00763   0.01631   0.15716   0.16000   0.17222
     Eigenvalues ---    0.35982   0.39345   0.50843   0.55554
 En-DIIS/RFO-DIIS/Sim-DIIS IScMMF=       -3 using points:     2    1
 RFO step:  Lambda=-6.44676964D-05.
 NNeg= 0 NGDIIS= 2 SimSw=  2.50D-03 Rises=F DC= -5.33D-05 SmlDif=  1.00D-05
 NRisDI= 0 DoIntr=F SqrtH=F CThrHd= 10.0 CDAdj=  3.0
 RMS Error=  0.2714423154D-01 NUsed= 2 OKEnD=T EnDIS=F
 InvSVX:  RCond= 7.04D-04 Info=           0 Equed=N FErr=  8.97D-15 BErr=  0.00D+00
 DidBck=F Rises=F RFO-DIIS coefs:    2.68076   -1.68076
 Iteration  1 RMS(Cart)=  0.01631059 RMS(Int)=  0.00056519
 Iteration  2 RMS(Cart)=  0.00053272 RMS(Int)=  0.00017317
 Iteration  3 RMS(Cart)=  0.00000040 RMS(Int)=  0.00017317
 ITry= 1 IFail=0 DXMaxC= 3.81D-02 DCOld= 1.00D+10 DXMaxT= 3.00D-01 DXLimC= 3.00D+00 Rises=F
 Variable       Old X    -DE/DX   Delta X   Delta X   Delta X     New X
                                 (Linear)    (Quad)   (Total)
    R1        1.81244  -0.00017  -0.00084   0.00003  -0.00081   1.81162
    R2        2.03221  -0.00014  -0.00629   0.00435  -0.00194   2.03027
    R3        2.04070   0.00002  -0.00326   0.00285  -0.00041   2.04029
    R4        2.57831  -0.00063  -0.00341   0.00017  -0.00325   2.57507
    A1        2.12034   0.00004   0.00009   0.00400   0.00375   2.12410
    A2        1.99138  -0.00002   0.01355  -0.00720   0.00603   1.99741
    A3        2.07306   0.00008   0.00203   0.00312   0.00485   2.07791
    A4        1.90496  -0.00002   0.00260  -0.00245   0.00014   1.90510
    D1        2.65229   0.00021   0.03933  -0.00215   0.03721   2.68950
    D2       -3.02740   0.00035   0.03710   0.00153   0.03853  -2.98887
    D3       -0.34037   0.00056   0.07011   0.00233   0.07254  -0.26782
         Item               Value     Threshold  Converged?
 Maximum Force            0.000633     0.000450     NO 
 RMS     Force            0.000293     0.000300     YES
 Maximum Displacement     0.038147     0.001800     NO 
 RMS     Displacement     0.016290     0.001200     NO 
 Predicted change in Energy=-3.252912D-05
 GradGradGradGradGradGradGradGradGradGradGradGradGradGradGradGradGradGrad

 Leave Link  103 at Wed Apr 10 09:21:19 2024, MaxMem=   104857600 cpu:               0.0 elap:               0.0
 (Enter /opt/g16/l202.exe)
                          Input orientation:                          
 ---------------------------------------------------------------------
 Center     Atomic      Atomic             Coordinates (Angstroms)
 Number     Number       Type             X           Y           Z
 ---------------------------------------------------------------------
      1          1           0       -0.818971   -0.040755   -1.001963
      2          1           0        0.922952    0.141668    1.225595
      3          1           0       -0.957422    0.191484    1.197173
      4          6           0       -0.012042   -0.029578    0.724857
      5          8           0        0.066619   -0.018870   -0.635494
 ---------------------------------------------------------------------
                    Distance matrix (angstroms):
                    1          2          3          4          5
     1  H    0.000000
     2  H    2.833653   0.000000
     3  H    2.215695   1.881249   0.000000
     4  C    1.906087   1.074373   1.079673   0.000000
     5  O    0.958670   2.054929   2.109876   1.362666   0.000000
 Stoichiometry    CH3O(2)
 Framework group  C1[X(CH3O)]
 Deg. of freedom     9
 Full point group                 C1      NOp   1
 RotChk:  IX=0 Diff= 1.97D-02
 Largest Abelian subgroup         C1      NOp   1
 Largest concise Abelian subgroup C1      NOp   1
                         Standard orientation:                         
 ---------------------------------------------------------------------
 Center     Atomic      Atomic             Coordinates (Angstroms)
 Number     Number       Type             X           Y           Z
 ---------------------------------------------------------------------
      1          1           0        1.084796    0.737849   -0.010857
      2          1           0       -1.239769   -0.877910    0.112872
      3          1           0       -1.111062    0.998866    0.128358
      4          6           0       -0.682449    0.025081   -0.055291
      5          8           0        0.670091   -0.126162    0.012671
 ---------------------------------------------------------------------
 Rotational constants (GHZ):         194.9053137          30.0731132          26.2197346
 Leave Link  202 at Wed Apr 10 09:21:19 2024, MaxMem=   104857600 cpu:               0.0 elap:               0.0
 (Enter /opt/g16/l301.exe)
 Standard basis: STO-3G (5D, 7F)
 Ernie: Thresh=  0.10000D-02 Tol=  0.10000D-05 Strict=F.
 There are    13 symmetry adapted cartesian basis functions of A   symmetry.
 There are    13 symmetry adapted basis functions of A   symmetry.
    13 basis functions,    39 primitive gaussians,    13 cartesian basis functions
     9 alpha electrons        8 beta electrons
       nuclear repulsion energy        35.3914899550 Hartrees.
 IExCor=    0 DFT=F Ex=HF Corr=None ExCW=0 ScaHFX=  1.000000
 ScaDFX=  1.000000  1.000000  1.000000  1.000000 ScalE2=  1.000000  1.000000
 IRadAn=      5 IRanWt=     -1 IRanGd=            0 ICorTp=0 IEmpDi=  4
 NAtoms=    5 NActive=    5 NUniq=    5 SFac= 1.00D+00 NAtFMM=   60 NAOKFM=F Big=F
 Integral buffers will be    131072 words long.
 Raffenetti 2 integral format.
 Two-electron integral symmetry is turned on.
 Leave Link  301 at Wed Apr 10 09:21:19 2024, MaxMem=   104857600 cpu:               0.0 elap:               0.0
 (Enter /opt/g16/l402.exe)
 External calculation of energy and first derivatives.
 Running external command "python3 -u ../pes/h3co_pes.py R"
         input file       "/home/jh-li/scratch/g16/Gau-1448914.EIn"
         output file      "/home/jh-li/scratch/g16/Gau-1448914.EOu"
         message file     "/home/jh-li/scratch/g16/Gau-1448914.EMs"
         fchk file        "/home/jh-li/scratch/g16/Gau-1448914.EFC"
         mat. el file     "/home/jh-li/scratch/g16/Gau-1448914.EUF"
 Recovered energy= -575.301927395     dipole=      0.000000000000      0.000000000000      0.000000000000
 Energy=    -575.301927     NIter=   0.
 Dipole moment=       0.000000       0.000000       0.000000
 Leave Link  402 at Wed Apr 10 09:21:19 2024, MaxMem=   104857600 cpu:               0.0 elap:               0.2
 (Enter /opt/g16/l716.exe)
 Dipole        = 0.00000000D+00 0.00000000D+00 0.00000000D+00
 ***** Axes restored to original set *****
 -------------------------------------------------------------------
 Center     Atomic                   Forces (Hartrees/Bohr)
 Number     Number              X              Y              Z
 -------------------------------------------------------------------
      1        1          -0.000116845    0.000048241   -0.000129027
      2        1           0.000458026   -0.000003928    0.000006721
      3        1          -0.000171215   -0.000095763   -0.000061815
      4        6          -0.000284876    0.000144821    0.000422930
      5        8           0.000112373   -0.000087034   -0.000232387
 -------------------------------------------------------------------
 Cartesian Forces:  Max     0.000458026 RMS     0.000206557
 Leave Link  716 at Wed Apr 10 09:21:19 2024, MaxMem=   104857600 cpu:               0.0 elap:               0.0
 (Enter /opt/g16/l103.exe)

 GradGradGradGradGradGradGradGradGradGradGradGradGradGradGradGradGradGrad
 Berny optimization.
 Using GEDIIS/GDIIS optimizer.
 FormGI is forming the generalized inverse of G from B-inverse, IUseBI=4.
 Internal  Forces:  Max     0.000398652 RMS     0.000205672
 Search for a local minimum.
 Step number   3 out of a maximum of   21
 All quantities printed in internal units (Hartrees-Bohrs-Radians)
 RMS Force = .20567D-03 SwitMx=.10000D-02 MixMth= 2
 Mixed Optimization -- En-DIIS/RFO-DIIS
 Swapping is turned off.
 Update second derivatives using D2CorX and points    1    2    3
 DE= -3.44D-05 DEPred=-3.25D-05 R= 1.06D+00
 TightC=F SS=  1.41D+00  RLast= 9.07D-02 DXNew= 5.0454D-01 2.7201D-01
 Trust test= 1.06D+00 RLast= 9.07D-02 DXMaxT set to 3.00D-01
 The second derivative matrix:
                          R1        R2        R3        R4        A1
           R1           0.55667
           R2           0.00240   0.39332
           R3           0.00089   0.01727   0.36923
           R4           0.00104   0.00618   0.00242   0.51915
           A1           0.00339   0.02190   0.01165   0.01158   0.16814
           A2           0.00084  -0.00890  -0.00602   0.00446  -0.01299
           A3           0.00195   0.01660   0.00949   0.00739   0.00457
           A4           0.00071  -0.00350  -0.00286   0.00232  -0.00301
           D1          -0.00068  -0.00753  -0.00429  -0.00201  -0.00390
           D2           0.00010  -0.00352  -0.00203   0.00160  -0.00568
           D3           0.00185   0.00768   0.00411   0.00837  -0.00466
                          A2        A3        A4        D1        D2
           A2           0.15682
           A3          -0.01168   0.16294
           A4           0.00100  -0.00341   0.16139
           D1           0.00414  -0.00250   0.00101   0.00430
           D2          -0.00112  -0.00412  -0.00040   0.00051   0.01985
           D3          -0.01094  -0.00429  -0.00273  -0.00042  -0.00491
                          D3
           D3           0.01106
 ITU=  1  1  0
     Eigenvalues ---    0.00644   0.01589   0.15913   0.16048   0.17377
     Eigenvalues ---    0.36023   0.40564   0.51979   0.55677
 En-DIIS/RFO-DIIS/Sim-DIIS IScMMF=       -3 using points:     3    2    1
 RFO step:  Lambda=-2.85620566D-06.
 NNeg= 0 NGDIIS= 3 SimSw=  2.50D-03 Rises=F DC= -3.44D-05 SmlDif=  1.00D-05
 NRisDI= 0 DoIntr=F SqrtH=F CThrHd= 10.0 CDAdj=  3.0
 RMS Error=  0.4567463850D-02 NUsed= 3 OKEnD=T EnDIS=F
 InvSVX:  RCond= 2.90D-06 Info=           0 Equed=N FErr=  6.96D-13 BErr=  9.20D-17
 DidBck=F Rises=F RFO-DIIS coefs:    0.98239    0.29080   -0.27319
 Iteration  1 RMS(Cart)=  0.00221518 RMS(Int)=  0.00004966
 Iteration  2 RMS(Cart)=  0.00000940 RMS(Int)=  0.00004880
 Iteration  3 RMS(Cart)=  0.00000000 RMS(Int)=  0.00004880
 ITry= 1 IFail=0 DXMaxC= 4.69D-03 DCOld= 1.00D+10 DXMaxT= 3.00D-01 DXLimC= 3.00D+00 Rises=F
 Variable       Old X    -DE/DX   Delta X   Delta X   Delta X     New X
                                 (Linear)    (Quad)   (Total)
    R1        1.81162   0.00015  -0.00012   0.00029   0.00017   1.81179
    R2        2.03027   0.00040  -0.00099   0.00162   0.00064   2.03091
    R3        2.04029   0.00010  -0.00052   0.00063   0.00011   2.04039
    R4        2.57507   0.00037  -0.00050   0.00084   0.00034   2.57540
    A1        2.12410   0.00025  -0.00005   0.00223   0.00209   2.12618
    A2        1.99741  -0.00019   0.00210  -0.00172   0.00029   1.99771
    A3        2.07791  -0.00003   0.00025   0.00043   0.00058   2.07849
    A4        1.90510   0.00015   0.00042   0.00055   0.00097   1.90607
    D1        2.68950   0.00004   0.00574   0.00196   0.00770   2.69720
    D2       -2.98887  -0.00003   0.00535  -0.00242   0.00290  -2.98597
    D3       -0.26782   0.00011   0.01012   0.00034   0.01049  -0.25733
         Item               Value     Threshold  Converged?
 Maximum Force            0.000399     0.000450     YES
 RMS     Force            0.000206     0.000300     YES
 Maximum Displacement     0.004694     0.001800     NO 
 RMS     Displacement     0.002216     0.001200     NO 
 Predicted change in Energy=-1.392637D-06
 GradGradGradGradGradGradGradGradGradGradGradGradGradGradGradGradGradGrad

 Leave Link  103 at Wed Apr 10 09:21:19 2024, MaxMem=   104857600 cpu:               0.0 elap:               0.0
 (Enter /opt/g16/l202.exe)
                          Input orientation:                          
 ---------------------------------------------------------------------
 Center     Atomic      Atomic             Coordinates (Angstroms)
 Number     Number       Type             X           Y           Z
 ---------------------------------------------------------------------
      1          1           0       -0.819012   -0.039069   -1.002587
      2          1           0        0.923748    0.142055    1.225650
      3          1           0       -0.958109    0.190238    1.197421
      4          6           0       -0.011979   -0.027920    0.725126
      5          8           0        0.066488   -0.021354   -0.635443
 ---------------------------------------------------------------------
                    Distance matrix (angstroms):
                    1          2          3          4          5
     1  H    0.000000
     2  H    2.834618   0.000000
     3  H    2.216295   1.882686   0.000000
     4  C    1.906940   1.074710   1.079730   0.000000
     5  O    0.958760   2.055545   2.110440   1.362845   0.000000
 Stoichiometry    CH3O(2)
 Framework group  C1[X(CH3O)]
 Deg. of freedom     9
 Full point group                 C1      NOp   1
 RotChk:  IX=0 Diff= 2.77D-03
 Largest Abelian subgroup         C1      NOp   1
 Largest concise Abelian subgroup C1      NOp   1
                         Standard orientation:                         
 ---------------------------------------------------------------------
 Center     Atomic      Atomic             Coordinates (Angstroms)
 Number     Number       Type             X           Y           Z
 ---------------------------------------------------------------------
      1          1           0        1.085537    0.737718   -0.007533
      2          1           0       -1.240107   -0.878453    0.112619
      3          1           0       -1.111230    0.999778    0.124766
      4          6           0       -0.682617    0.025070   -0.054273
      5          8           0        0.670188   -0.126183    0.011973
 ---------------------------------------------------------------------
 Rotational constants (GHZ):         194.8825546          30.0640736          26.2060529
 Leave Link  202 at Wed Apr 10 09:21:19 2024, MaxMem=   104857600 cpu:               0.0 elap:               0.0
 (Enter /opt/g16/l301.exe)
 Standard basis: STO-3G (5D, 7F)
 Ernie: Thresh=  0.10000D-02 Tol=  0.10000D-05 Strict=F.
 There are    13 symmetry adapted cartesian basis functions of A   symmetry.
 There are    13 symmetry adapted basis functions of A   symmetry.
    13 basis functions,    39 primitive gaussians,    13 cartesian basis functions
     9 alpha electrons        8 beta electrons
       nuclear repulsion energy        35.3853009946 Hartrees.
 IExCor=    0 DFT=F Ex=HF Corr=None ExCW=0 ScaHFX=  1.000000
 ScaDFX=  1.000000  1.000000  1.000000  1.000000 ScalE2=  1.000000  1.000000
 IRadAn=      5 IRanWt=     -1 IRanGd=            0 ICorTp=0 IEmpDi=  4
 NAtoms=    5 NActive=    5 NUniq=    5 SFac= 1.00D+00 NAtFMM=   60 NAOKFM=F Big=F
 Integral buffers will be    131072 words long.
 Raffenetti 2 integral format.
 Two-electron integral symmetry is turned on.
 Leave Link  301 at Wed Apr 10 09:21:19 2024, MaxMem=   104857600 cpu:               0.0 elap:               0.0
 (Enter /opt/g16/l402.exe)
 External calculation of energy and first derivatives.
 Running external command "python3 -u ../pes/h3co_pes.py R"
         input file       "/home/jh-li/scratch/g16/Gau-1448914.EIn"
         output file      "/home/jh-li/scratch/g16/Gau-1448914.EOu"
         message file     "/home/jh-li/scratch/g16/Gau-1448914.EMs"
         fchk file        "/home/jh-li/scratch/g16/Gau-1448914.EFC"
         mat. el file     "/home/jh-li/scratch/g16/Gau-1448914.EUF"
 Recovered energy= -575.301928793     dipole=      0.000000000000      0.000000000000      0.000000000000
 Energy=    -575.301929     NIter=   0.
 Dipole moment=       0.000000       0.000000       0.000000
 Leave Link  402 at Wed Apr 10 09:21:19 2024, MaxMem=   104857600 cpu:               0.0 elap:               0.2
 (Enter /opt/g16/l716.exe)
 Dipole        = 0.00000000D+00 0.00000000D+00 0.00000000D+00
 ***** Axes restored to original set *****
 -------------------------------------------------------------------
 Center     Atomic                   Forces (Hartrees/Bohr)
 Number     Number              X              Y              Z
 -------------------------------------------------------------------
      1        1          -0.000053132   -0.000006521    0.000004939
      2        1           0.000195650   -0.000041802   -0.000088477
      3        1          -0.000071984   -0.000054124   -0.000069282
      4        6          -0.000176678    0.000112709    0.000295976
      5        8           0.000103592   -0.000003985   -0.000136744
 -------------------------------------------------------------------
 Cartesian Forces:  Max     0.000295976 RMS     0.000122371
 Leave Link  716 at Wed Apr 10 09:21:19 2024, MaxMem=   104857600 cpu:               0.0 elap:               0.0
 (Enter /opt/g16/l103.exe)

 GradGradGradGradGradGradGradGradGradGradGradGradGradGradGradGradGradGrad
 Berny optimization.
 Using GEDIIS/GDIIS optimizer.
 FormGI is forming the generalized inverse of G from B-inverse, IUseBI=4.
 Internal  Forces:  Max     0.000193145 RMS     0.000096651
 Search for a local minimum.
 Step number   4 out of a maximum of   21
 All quantities printed in internal units (Hartrees-Bohrs-Radians)
 RMS Force = .96651D-04 SwitMx=.10000D-02 MixMth= 2
 Mixed Optimization -- En-DIIS/RFO-DIIS
 Swapping is turned off.
 Update second derivatives using D2CorX and points    1    2    3    4
 DE= -1.40D-06 DEPred=-1.39D-06 R= 1.00D+00
 TightC=F SS=  1.41D+00  RLast= 1.36D-02 DXNew= 5.0454D-01 4.0698D-02
 Trust test= 1.00D+00 RLast= 1.36D-02 DXMaxT set to 3.00D-01
 The second derivative matrix:
                          R1        R2        R3        R4        A1
           R1           0.55715
           R2           0.00274   0.39182
           R3           0.00141   0.01793   0.36968
           R4          -0.00017   0.00092   0.00185   0.51165
           A1          -0.00708  -0.00625   0.00462  -0.01412   0.13944
           A2           0.00298  -0.00255  -0.00428   0.01014  -0.00547
           A3          -0.00080   0.00961   0.00771   0.00121   0.00017
           A4           0.00553   0.00784   0.00094   0.00947  -0.01293
           D1          -0.00016  -0.00659  -0.00402  -0.00139  -0.00581
           D2           0.00211   0.00137  -0.00067   0.00548  -0.00525
           D3           0.00163   0.00705   0.00457   0.00601  -0.01400
                          A2        A3        A4        D1        D2
           A2           0.15436
           A3          -0.01037   0.16267
           A4           0.00220  -0.00716   0.17448
           D1           0.00457  -0.00318   0.00276   0.00455
           D2          -0.00140  -0.00456   0.00343   0.00107   0.02065
           D3          -0.00937  -0.00640   0.00023  -0.00016  -0.00334
                          D3
           D3           0.01042
 ITU=  1  1  1  0
     Eigenvalues ---    0.00534   0.01615   0.13938   0.16426   0.17993
     Eigenvalues ---    0.35997   0.40281   0.51290   0.55744
 En-DIIS/RFO-DIIS/Sim-DIIS IScMMF=       -3 using points:     4    3    2    1
 RFO step:  Lambda=-1.06809624D-06.
 NNeg= 0 NGDIIS= 4 SimSw=  2.50D-01 Rises=F DC= -1.40D-06 SmlDif=  1.00D-05
 NRisDI= 0 DoIntr=F SqrtH=F CThrHd= 10.0 CDAdj=  3.0
 RMS Error=  0.2880951958D-02 NUsed= 4 OKEnD=F EnDIS=F
 InvSVX:  RCond= 7.33D-07 Info=           0 Equed=N FErr=  3.07D-13 BErr=  8.20D-17
 DidBck=F Rises=F RFO-DIIS coefs:    2.53604   -1.66036    0.11847    0.00586
 Iteration  1 RMS(Cart)=  0.00164922 RMS(Int)=  0.00000999
 Iteration  2 RMS(Cart)=  0.00000426 RMS(Int)=  0.00000902
 Iteration  3 RMS(Cart)=  0.00000000 RMS(Int)=  0.00000902
 ITry= 1 IFail=0 DXMaxC= 3.90D-03 DCOld= 1.00D+10 DXMaxT= 3.00D-01 DXLimC= 3.00D+00 Rises=F
 Variable       Old X    -DE/DX   Delta X   Delta X   Delta X     New X
                                 (Linear)    (Quad)   (Total)
    R1        1.81179   0.00004   0.00036  -0.00026   0.00010   1.81189
    R2        2.03091   0.00012   0.00124  -0.00090   0.00034   2.03124
    R3        2.04039   0.00002   0.00023  -0.00026  -0.00003   2.04036
    R4        2.57540   0.00014   0.00094  -0.00058   0.00035   2.57576
    A1        2.12618   0.00019   0.00274   0.00042   0.00318   2.12936
    A2        1.99771  -0.00015  -0.00035  -0.00024  -0.00058   1.99712
    A3        2.07849  -0.00002   0.00029   0.00018   0.00048   2.07898
    A4        1.90607  -0.00003   0.00147  -0.00175  -0.00029   1.90579
    D1        2.69720   0.00002   0.00706   0.00088   0.00794   2.70514
    D2       -2.98597  -0.00005  -0.00047  -0.00115  -0.00161  -2.98758
    D3       -0.25733   0.00004   0.00686  -0.00018   0.00667  -0.25066
         Item               Value     Threshold  Converged?
 Maximum Force            0.000193     0.000450     YES
 RMS     Force            0.000097     0.000300     YES
 Maximum Displacement     0.003896     0.001800     NO 
 RMS     Displacement     0.001649     0.001200     NO 
 Predicted change in Energy=-5.005617D-07
 GradGradGradGradGradGradGradGradGradGradGradGradGradGradGradGradGradGrad

 Leave Link  103 at Wed Apr 10 09:21:19 2024, MaxMem=   104857600 cpu:               0.0 elap:               0.0
 (Enter /opt/g16/l202.exe)
                          Input orientation:                          
 ---------------------------------------------------------------------
 Center     Atomic      Atomic             Coordinates (Angstroms)
 Number     Number       Type             X           Y           Z
 ---------------------------------------------------------------------
      1          1           0       -0.818946   -0.038693   -1.002455
      2          1           0        0.924606    0.141474    1.225287
      3          1           0       -0.959066    0.189330    1.197354
      4          6           0       -0.012124   -0.025859    0.725365
      5          8           0        0.066666   -0.022303   -0.635383
 ---------------------------------------------------------------------
                    Distance matrix (angstroms):
                    1          2          3          4          5
     1  H    0.000000
     2  H    2.834655   0.000000
     3  H    2.216030   1.884487   0.000000
     4  C    1.906958   1.074888   1.079712   0.000000
     5  O    0.958812   2.055475   2.110886   1.363033   0.000000
 Stoichiometry    CH3O(2)
 Framework group  C1[X(CH3O)]
 Deg. of freedom     9
 Full point group                 C1      NOp   1
 RotChk:  IX=0 Diff= 1.70D-03
 Largest Abelian subgroup         C1      NOp   1
 Largest concise Abelian subgroup C1      NOp   1
                         Standard orientation:                         
 ---------------------------------------------------------------------
 Center     Atomic      Atomic             Coordinates (Angstroms)
 Number     Number       Type             X           Y           Z
 ---------------------------------------------------------------------
      1          1           0        1.085298    0.737980   -0.006510
      2          1           0       -1.239543   -0.879610    0.110887
      3          1           0       -1.111374    1.000480    0.121995
      4          6           0       -0.682778    0.025086   -0.053192
      5          8           0        0.670286   -0.126171    0.011597
 ---------------------------------------------------------------------
 Rotational constants (GHZ):         194.7727605          30.0630298          26.1968954
 Leave Link  202 at Wed Apr 10 09:21:19 2024, MaxMem=   104857600 cpu:               0.0 elap:               0.0
 (Enter /opt/g16/l301.exe)
 Standard basis: STO-3G (5D, 7F)
 Ernie: Thresh=  0.10000D-02 Tol=  0.10000D-05 Strict=F.
 There are    13 symmetry adapted cartesian basis functions of A   symmetry.
 There are    13 symmetry adapted basis functions of A   symmetry.
    13 basis functions,    39 primitive gaussians,    13 cartesian basis functions
     9 alpha electrons        8 beta electrons
       nuclear repulsion energy        35.3814459815 Hartrees.
 IExCor=    0 DFT=F Ex=HF Corr=None ExCW=0 ScaHFX=  1.000000
 ScaDFX=  1.000000  1.000000  1.000000  1.000000 ScalE2=  1.000000  1.000000
 IRadAn=      5 IRanWt=     -1 IRanGd=            0 ICorTp=0 IEmpDi=  4
 NAtoms=    5 NActive=    5 NUniq=    5 SFac= 1.00D+00 NAtFMM=   60 NAOKFM=F Big=F
 Integral buffers will be    131072 words long.
 Raffenetti 2 integral format.
 Two-electron integral symmetry is turned on.
 Leave Link  301 at Wed Apr 10 09:21:19 2024, MaxMem=   104857600 cpu:               0.0 elap:               0.0
 (Enter /opt/g16/l402.exe)
 External calculation of energy and first derivatives.
 Running external command "python3 -u ../pes/h3co_pes.py R"
         input file       "/home/jh-li/scratch/g16/Gau-1448914.EIn"
         output file      "/home/jh-li/scratch/g16/Gau-1448914.EOu"
         message file     "/home/jh-li/scratch/g16/Gau-1448914.EMs"
         fchk file        "/home/jh-li/scratch/g16/Gau-1448914.EFC"
         mat. el file     "/home/jh-li/scratch/g16/Gau-1448914.EUF"
 Recovered energy= -575.301929216     dipole=      0.000000000000      0.000000000000      0.000000000000
 Energy=    -575.301929     NIter=   0.
 Dipole moment=       0.000000       0.000000       0.000000
 Leave Link  402 at Wed Apr 10 09:21:20 2024, MaxMem=   104857600 cpu:               0.0 elap:               0.2
 (Enter /opt/g16/l716.exe)
 Dipole        = 0.00000000D+00 0.00000000D+00 0.00000000D+00
 ***** Axes restored to original set *****
 -------------------------------------------------------------------
 Center     Atomic                   Forces (Hartrees/Bohr)
 Number     Number              X              Y              Z
 -------------------------------------------------------------------
      1        1           0.000006244   -0.000022859   -0.000009687
      2        1          -0.000031085   -0.000033565   -0.000028914
      3        1           0.000020963   -0.000009160   -0.000028363
      4        6           0.000051885    0.000051143    0.000097666
      5        8          -0.000050584    0.000020630   -0.000024292
 -------------------------------------------------------------------
 Cartesian Forces:  Max     0.000097666 RMS     0.000039440
 Leave Link  716 at Wed Apr 10 09:21:20 2024, MaxMem=   104857600 cpu:               0.0 elap:               0.0
 (Enter /opt/g16/l103.exe)

 GradGradGradGradGradGradGradGradGradGradGradGradGradGradGradGradGradGrad
 Berny optimization.
 Using GEDIIS/GDIIS optimizer.
 FormGI is forming the generalized inverse of G from B-inverse, IUseBI=4.
 Internal  Forces:  Max     0.000048205 RMS     0.000028525
 Search for a local minimum.
 Step number   5 out of a maximum of   21
 All quantities printed in internal units (Hartrees-Bohrs-Radians)
 RMS Force = .28525D-04 SwitMx=.10000D-02 MixMth= 2
 Mixed Optimization -- En-DIIS/RFO-DIIS
 Swapping is turned off.
 Update second derivatives using D2CorX and points    1    2    3    4    5
 DE= -4.22D-07 DEPred=-5.01D-07 R= 8.43D-01
 Trust test= 8.43D-01 RLast= 1.10D-02 DXMaxT set to 3.00D-01
 The second derivative matrix:
                          R1        R2        R3        R4        A1
           R1           0.56058
           R2           0.01380   0.42746
           R3           0.00588   0.03210   0.37495
           R4           0.00443   0.01593   0.00915   0.51347
           A1          -0.00892  -0.01020   0.00651  -0.03159   0.10261
           A2          -0.00284  -0.02165  -0.01218   0.00465  -0.00023
           A3          -0.00195   0.00612   0.00679  -0.00289  -0.00537
           A4           0.00727   0.01320   0.00276   0.01551  -0.00859
           D1          -0.00032  -0.00697  -0.00405  -0.00179  -0.00610
           D2           0.00310   0.00430  -0.00029   0.00985   0.00383
           D3           0.00375   0.01518   0.00809   0.00821  -0.01289
                          A2        A3        A4        D1        D2
           A2           0.16511
           A3          -0.00798   0.16187
           A4          -0.00008  -0.00648   0.17519
           D1           0.00469  -0.00294   0.00208   0.00420
           D2          -0.00432  -0.00313   0.00142   0.00090   0.01868
           D3          -0.01512  -0.00612  -0.00148  -0.00075  -0.00290
                          D3
           D3           0.01233
 ITU=  0  1  1  1  0
     Eigenvalues ---    0.00484   0.01353   0.11865   0.16591   0.17758
     Eigenvalues ---    0.36014   0.43980   0.51923   0.56408
 En-DIIS/RFO-DIIS/Sim-DIIS IScMMF=       -3 using points:     5    4    3    2    1
 RFO step:  Lambda=-1.30578504D-07.
 NNeg= 0 NGDIIS= 5 SimSw=  2.50D-01 Rises=F DC= -4.22D-07 SmlDif=  1.00D-05
 NRisDI= 0 DoIntr=F SqrtH=F CThrHd= 10.0 CDAdj=  3.0
 RMS Error=  0.9195941934D-03 NUsed= 5 OKEnD=F EnDIS=F
 InvSVX:  RCond= 4.83D-08 Info=           0 Equed=N FErr=  4.20D-12 BErr=  6.67D-17
 DIIS inversion failure, remove point   5.
 InvSVX:  RCond= 9.26D-08 Info=           0 Equed=N FErr=  5.36D-13 BErr=  1.09D-16
 DIIS inversion failure, remove point   4.
 InvSVX:  RCond= 6.32D-07 Info=           0 Equed=N FErr=  6.71D-14 BErr=  0.00D+00
 RFO-DIIS uses    3 points instead of    5
 DidBck=F Rises=F RFO-DIIS coefs:    1.68263   -1.09247    0.40985    0.00000    0.00000
 Iteration  1 RMS(Cart)=  0.00078986 RMS(Int)=  0.00000209
 Iteration  2 RMS(Cart)=  0.00000080 RMS(Int)=  0.00000191
 ITry= 1 IFail=0 DXMaxC= 1.57D-03 DCOld= 1.00D+10 DXMaxT= 3.00D-01 DXLimC= 3.00D+00 Rises=F
 Variable       Old X    -DE/DX   Delta X   Delta X   Delta X     New X
                                 (Linear)    (Quad)   (Total)
    R1        1.81189  -0.00001  -0.00000  -0.00000  -0.00000   1.81189
    R2        2.03124  -0.00005  -0.00003  -0.00009  -0.00012   2.03113
    R3        2.04036  -0.00003  -0.00007  -0.00005  -0.00012   2.04024
    R4        2.57576   0.00004   0.00010   0.00008   0.00018   2.57594
    A1        2.12936   0.00002   0.00131  -0.00045   0.00087   2.13023
    A2        1.99712   0.00001  -0.00052   0.00068   0.00017   1.99730
    A3        2.07898  -0.00003   0.00009  -0.00012  -0.00003   2.07895
    A4        1.90579   0.00004  -0.00059   0.00086   0.00026   1.90605
    D1        2.70514   0.00002   0.00227   0.00047   0.00273   2.70787
    D2       -2.98758  -0.00003  -0.00228  -0.00055  -0.00283  -2.99041
    D3       -0.25066  -0.00001   0.00025  -0.00037  -0.00012  -0.25078
         Item               Value     Threshold  Converged?
 Maximum Force            0.000048     0.000450     YES
 RMS     Force            0.000029     0.000300     YES
 Maximum Displacement     0.001567     0.001800     YES
 RMS     Displacement     0.000790     0.001200     YES
 Predicted change in Energy=-5.557754D-08
 Optimization completed.
    -- Stationary point found.
                           ----------------------------
                           !   Optimized Parameters   !
                           ! (Angstroms and Degrees)  !
 --------------------------                            --------------------------
 ! Name  Definition              Value          Derivative Info.                !
 --------------------------------------------------------------------------------
 ! R1    R(1,5)                  0.9588         -DE/DX =    0.0                 !
 ! R2    R(2,4)                  1.0749         -DE/DX =    0.0                 !
 ! R3    R(3,4)                  1.0797         -DE/DX =    0.0                 !
 ! R4    R(4,5)                  1.363          -DE/DX =    0.0                 !
 ! A1    A(2,4,3)              122.0032         -DE/DX =    0.0                 !
 ! A2    A(2,4,5)              114.4268         -DE/DX =    0.0                 !
 ! A3    A(3,4,5)              119.1165         -DE/DX =    0.0                 !
 ! A4    A(1,5,4)              109.1936         -DE/DX =    0.0                 !
 ! D1    D(5,3,4,2)            154.9931         -DE/DX =    0.0                 !
 ! D2    D(2,4,5,1)           -171.1755         -DE/DX =    0.0                 !
 ! D3    D(3,4,5,1)            -14.3619         -DE/DX =    0.0                 !
 --------------------------------------------------------------------------------
 Largest change from initial coordinates is atom    1       0.009 Angstoms.
 GradGradGradGradGradGradGradGradGradGradGradGradGradGradGradGradGradGrad

 Leave Link  103 at Wed Apr 10 09:21:20 2024, MaxMem=   104857600 cpu:               0.0 elap:               0.0
 (Enter /opt/g16/l202.exe)
                          Input orientation:                          
 ---------------------------------------------------------------------
 Center     Atomic      Atomic             Coordinates (Angstroms)
 Number     Number       Type             X           Y           Z
 ---------------------------------------------------------------------
      1          1           0       -0.818946   -0.038693   -1.002455
      2          1           0        0.924606    0.141474    1.225287
      3          1           0       -0.959066    0.189330    1.197354
      4          6           0       -0.012124   -0.025859    0.725365
      5          8           0        0.066666   -0.022303   -0.635383
 ---------------------------------------------------------------------
                    Distance matrix (angstroms):
                    1          2          3          4          5
     1  H    0.000000
     2  H    2.834655   0.000000
     3  H    2.216030   1.884487   0.000000
     4  C    1.906958   1.074888   1.079712   0.000000
     5  O    0.958812   2.055475   2.110886   1.363033   0.000000
 Stoichiometry    CH3O(2)
 Framework group  C1[X(CH3O)]
 Deg. of freedom     9
 Full point group                 C1      NOp   1
 RotChk:  IX=0 Diff= 1.16D-15
 Largest Abelian subgroup         C1      NOp   1
 Largest concise Abelian subgroup C1      NOp   1
                         Standard orientation:                         
 ---------------------------------------------------------------------
 Center     Atomic      Atomic             Coordinates (Angstroms)
 Number     Number       Type             X           Y           Z
 ---------------------------------------------------------------------
      1          1           0        1.085298    0.737980   -0.006510
      2          1           0       -1.239543   -0.879610    0.110887
      3          1           0       -1.111374    1.000480    0.121995
      4          6           0       -0.682778    0.025086   -0.053192
      5          8           0        0.670286   -0.126171    0.011597
 ---------------------------------------------------------------------
 Rotational constants (GHZ):         194.7727605          30.0630298          26.1968954
 Leave Link  202 at Wed Apr 10 09:21:20 2024, MaxMem=   104857600 cpu:               0.0 elap:               0.0
 (Enter /opt/g16/l601.exe)
 Leave Link  601 at Wed Apr 10 09:21:20 2024, MaxMem=   104857600 cpu:               0.0 elap:               0.0
 (Enter /opt/g16/l9999.exe)
 Unable to Open any file for archive entry.
 1\1\GINC-DESKTOP-1D9QDE1\FOpt\External='python3 -u ../pes/h3co_pes.py'
 \ZDO\C1H3O1(2)\JH-LI\10-Apr-2024\0\\#p external="python3 -u ../pes/h3c
 o_pes.py" opt=nomicro\\CH2OH\\0,2\H,-0.818946171,-0.0386933579,-1.0024
 549395\H,0.924606145,0.1414740621,1.225286545\H,-0.9590658267,0.189330
 3782,1.197354124\C,-0.0121240303,-0.02585883,0.7253653935\O,0.06666631
 08,-0.0223025692,-0.6353833907\\Version=ES64L-G16RevC.01\HF=-575.30192
 92\S2=0.\S2-1=0.\S2A=0.\RMSD=0.000e+00\RMSF=3.944e-05\Dipole=0.,0.,0.\
 PG=C01 [X(C1H3O1)]\\@
 The archive entry for this job was punched.


 SUPPORT THE RIGHT TO ARM BEARS!
 (ADD A CLAWS TO THE BILL OF RIGHTS)
 Job cpu time:       0 days  0 hours  0 minutes  1.1 seconds.
 Elapsed time:       0 days  0 hours  0 minutes  1.9 seconds.
 File lengths (MBytes):  RWF=      6 Int=      0 D2E=      0 Chk=      1 Scr=      1
 Normal termination of Gaussian 16 at Wed Apr 10 09:21:20 2024.
 Initial command:
 /opt/g16/l1.exe "/home/jh-li/scratch/g16/Gau-1448911.inp" -scrdir="/home/jh-li/scratch/g16/"
 Entering Link 1 = /opt/g16/l1.exe PID=   1448961.
  
 Copyright (c) 1988-2019, Gaussian, Inc.  All Rights Reserved.
  
 This is part of the Gaussian(R) 16 program.  It is based on
 the Gaussian(R) 09 system (copyright 2009, Gaussian, Inc.),
 the Gaussian(R) 03 system (copyright 2003, Gaussian, Inc.),
 the Gaussian(R) 98 system (copyright 1998, Gaussian, Inc.),
 the Gaussian(R) 94 system (copyright 1995, Gaussian, Inc.),
 the Gaussian 92(TM) system (copyright 1992, Gaussian, Inc.),
 the Gaussian 90(TM) system (copyright 1990, Gaussian, Inc.),
 the Gaussian 88(TM) system (copyright 1988, Gaussian, Inc.),
 the Gaussian 86(TM) system (copyright 1986, Carnegie Mellon
 University), and the Gaussian 82(TM) system (copyright 1983,
 Carnegie Mellon University). Gaussian is a federally registered
 trademark of Gaussian, Inc.
  
 This software contains proprietary and confidential information,
 including trade secrets, belonging to Gaussian, Inc.
  
 This software is provided under written license and may be
 used, copied, transmitted, or stored only in accord with that
 written license.
  
 The following legend is applicable only to US Government
 contracts under FAR:
  
                    RESTRICTED RIGHTS LEGEND
  
 Use, reproduction and disclosure by the US Government is
 subject to restrictions as set forth in subparagraphs (a)
 and (c) of the Commercial Computer Software - Restricted
 Rights clause in FAR 52.227-19.
  
 Gaussian, Inc.
 340 Quinnipiac St., Bldg. 40, Wallingford CT 06492
  
  
 ---------------------------------------------------------------
 Warning -- This program may not be used in any manner that
 competes with the business of Gaussian, Inc. or will provide
 assistance to any competitor of Gaussian, Inc.  The licensee
 of this program is prohibited from giving any competitor of
 Gaussian, Inc. access to this program.  By using this program,
 the user acknowledges that Gaussian, Inc. is engaged in the
 business of creating and licensing software in the field of
 computational chemistry and represents and warrants to the
 licensee that it is not a competitor of Gaussian, Inc. and that
 it will not use this program in any manner prohibited above.
 ---------------------------------------------------------------
  

 Cite this work as:
 Gaussian 16, Revision C.01,
 M. J. Frisch, G. W. Trucks, H. B. Schlegel, G. E. Scuseria, 
 M. A. Robb, J. R. Cheeseman, G. Scalmani, V. Barone, 
 G. A. Petersson, H. Nakatsuji, X. Li, M. Caricato, A. V. Marenich, 
 J. Bloino, B. G. Janesko, R. Gomperts, B. Mennucci, H. P. Hratchian, 
 J. V. Ortiz, A. F. Izmaylov, J. L. Sonnenberg, D. Williams-Young, 
 F. Ding, F. Lipparini, F. Egidi, J. Goings, B. Peng, A. Petrone, 
 T. Henderson, D. Ranasinghe, V. G. Zakrzewski, J. Gao, N. Rega, 
 G. Zheng, W. Liang, M. Hada, M. Ehara, K. Toyota, R. Fukuda, 
 J. Hasegawa, M. Ishida, T. Nakajima, Y. Honda, O. Kitao, H. Nakai, 
 T. Vreven, K. Throssell, J. A. Montgomery, Jr., J. E. Peralta, 
 F. Ogliaro, M. J. Bearpark, J. J. Heyd, E. N. Brothers, K. N. Kudin, 
 V. N. Staroverov, T. A. Keith, R. Kobayashi, J. Normand, 
 K. Raghavachari, A. P. Rendell, J. C. Burant, S. S. Iyengar, 
 J. Tomasi, M. Cossi, J. M. Millam, M. Klene, C. Adamo, R. Cammi, 
 J. W. Ochterski, R. L. Martin, K. Morokuma, O. Farkas, 
 J. B. Foresman, and D. J. Fox, Gaussian, Inc., Wallingford CT, 2019.
 
 ******************************************
 Gaussian 16:  ES64L-G16RevC.01  3-Jul-2019
                10-Apr-2024 
 ******************************************
 %nproc=1
 Will use up to    1 processors via shared memory.
 %chk=CH2OH-opt-freq.chk
 --------------------------------------------------------------
 #p external="python3 -u ../pes/h3co_pes.py" freq geom=allcheck
 --------------------------------------------------------------
 1/10=4,18=10,29=7,30=1,38=1/1,3;
 2/12=2,40=1/2;
 3/11=9,14=-4,25=1,30=1,41=9900000,43=2,71=2,140=1/1;
 4/20=17,22=2,24=3,113=1,114=1/2;
 6/7=2,8=2,9=2,10=2/1;
 7/8=1,25=1,44=-1/16;
 1/10=4,18=10,30=1/3;
 99//99;
 Leave Link    1 at Wed Apr 10 09:21:20 2024, MaxMem=           0 cpu:               0.0 elap:               0.0
 (Enter /opt/g16/l101.exe)
 Structure from the checkpoint file:  "CH2OH-opt-freq.chk"
 -----
 CH2OH
 -----
 Charge =  0 Multiplicity = 2
 Redundant internal coordinates found in file.  (old form).
 H,0,-0.818946171,-0.0386933579,-1.0024549395
 H,0,0.924606145,0.1414740621,1.225286545
 H,0,-0.9590658267,0.1893303782,1.197354124
 C,0,-0.0121240303,-0.02585883,0.7253653935
 O,0,0.0666663108,-0.0223025692,-0.6353833907
 Recover connectivity data from disk.
 ITRead=  0  0  0  0  0
 MicOpt= -1 -1 -1 -1 -1
 NAtoms=      5 NQM=        5 NQMF=       0 NMMI=      0 NMMIF=      0
                NMic=       0 NMicF=      0.
                    Isotopes and Nuclear Properties:
 (Nuclear quadrupole moments (NQMom) in fm**2, nuclear magnetic moments (NMagM)
  in nuclear magnetons)

  Atom         1           2           3           4           5
 IAtWgt=           1           1           1          12          16
 AtmWgt=   1.0078250   1.0078250   1.0078250  12.0000000  15.9949146
 NucSpn=           1           1           1           0           0
 AtZEff=   1.0000000   1.0000000   1.0000000   3.6000000   5.6000000
 NQMom=    0.0000000   0.0000000   0.0000000   0.0000000   0.0000000
 NMagM=    2.7928460   2.7928460   2.7928460   0.0000000   0.0000000
 AtZNuc=   1.0000000   1.0000000   1.0000000   6.0000000   8.0000000
 Leave Link  101 at Wed Apr 10 09:21:20 2024, MaxMem=   104857600 cpu:               0.2 elap:               0.2
 (Enter /opt/g16/l103.exe)

 GradGradGradGradGradGradGradGradGradGradGradGradGradGradGradGradGradGrad
 Berny optimization.
 Initialization pass.
 Trust Radius=3.00D-01 FncErr=1.00D-07 GrdErr=1.00D-07 EigMax=2.50D+02 EigMin=1.00D-04
 Number of steps in this run=      2 maximum allowed number of steps=      2.
 GradGradGradGradGradGradGradGradGradGradGradGradGradGradGradGradGradGrad

 Leave Link  103 at Wed Apr 10 09:21:20 2024, MaxMem=   104857600 cpu:               0.0 elap:               0.0
 (Enter /opt/g16/l202.exe)
                          Input orientation:                          
 ---------------------------------------------------------------------
 Center     Atomic      Atomic             Coordinates (Angstroms)
 Number     Number       Type             X           Y           Z
 ---------------------------------------------------------------------
      1          1           0       -0.818946   -0.038693   -1.002455
      2          1           0        0.924606    0.141474    1.225287
      3          1           0       -0.959066    0.189330    1.197354
      4          6           0       -0.012124   -0.025859    0.725365
      5          8           0        0.066666   -0.022303   -0.635383
 ---------------------------------------------------------------------
                    Distance matrix (angstroms):
                    1          2          3          4          5
     1  H    0.000000
     2  H    2.834655   0.000000
     3  H    2.216030   1.884487   0.000000
     4  C    1.906958   1.074888   1.079712   0.000000
     5  O    0.958812   2.055475   2.110886   1.363033   0.000000
 Stoichiometry    CH3O(2)
 Framework group  C1[X(CH3O)]
 Deg. of freedom     9
 Full point group                 C1      NOp   1
 RotChk:  IX=0 Diff= 1.36D-15
 Largest Abelian subgroup         C1      NOp   1
 Largest concise Abelian subgroup C1      NOp   1
                         Standard orientation:                         
 ---------------------------------------------------------------------
 Center     Atomic      Atomic             Coordinates (Angstroms)
 Number     Number       Type             X           Y           Z
 ---------------------------------------------------------------------
      1          1           0        1.085298    0.737980   -0.006510
      2          1           0       -1.239543   -0.879610    0.110887
      3          1           0       -1.111374    1.000480    0.121995
      4          6           0       -0.682778    0.025086   -0.053192
      5          8           0        0.670286   -0.126171    0.011597
 ---------------------------------------------------------------------
 Rotational constants (GHZ):         194.7727605          30.0630298          26.1968954
 Leave Link  202 at Wed Apr 10 09:21:20 2024, MaxMem=   104857600 cpu:               0.0 elap:               0.0
 (Enter /opt/g16/l301.exe)
 Standard basis: STO-3G (5D, 7F)
 Ernie: Thresh=  0.10000D-02 Tol=  0.10000D-05 Strict=F.
 There are    13 symmetry adapted cartesian basis functions of A   symmetry.
 There are    13 symmetry adapted basis functions of A   symmetry.
    13 basis functions,    39 primitive gaussians,    13 cartesian basis functions
     9 alpha electrons        8 beta electrons
       nuclear repulsion energy        35.3814459815 Hartrees.
 IExCor=    0 DFT=F Ex=HF Corr=None ExCW=0 ScaHFX=  1.000000
 ScaDFX=  1.000000  1.000000  1.000000  1.000000 ScalE2=  1.000000  1.000000
 IRadAn=      5 IRanWt=     -1 IRanGd=            0 ICorTp=0 IEmpDi=  4
 NAtoms=    5 NActive=    5 NUniq=    5 SFac= 1.00D+00 NAtFMM=   60 NAOKFM=F Big=F
 Integral buffers will be    131072 words long.
 Raffenetti 2 integral format.
 Two-electron integral symmetry is turned on.
 Leave Link  301 at Wed Apr 10 09:21:20 2024, MaxMem=   104857600 cpu:               0.1 elap:               0.1
 (Enter /opt/g16/l402.exe)
 External calculation of energy, first and second derivatives.
 Running external command "python3 -u ../pes/h3co_pes.py R"
         input file       "/home/jh-li/scratch/g16/Gau-1448961.EIn"
         output file      "/home/jh-li/scratch/g16/Gau-1448961.EOu"
         message file     "/home/jh-li/scratch/g16/Gau-1448961.EMs"
         fchk file        "/home/jh-li/scratch/g16/Gau-1448961.EFC"
         mat. el file     "/home/jh-li/scratch/g16/Gau-1448961.EUF"
 Recovered energy= -575.301929216     dipole=      0.000000000000      0.000000000000      0.000000000000
 Energy=    -575.301929     NIter=   0.
 Dipole moment=       0.000000       0.000000       0.000000
 Leave Link  402 at Wed Apr 10 09:21:21 2024, MaxMem=   104857600 cpu:               0.0 elap:               1.1
 (Enter /opt/g16/l601.exe)
 Leave Link  601 at Wed Apr 10 09:21:21 2024, MaxMem=   104857600 cpu:               0.0 elap:               0.0
 (Enter /opt/g16/l716.exe)
 Dipole        = 0.00000000D+00 0.00000000D+00 0.00000000D+00
 Full mass-weighted force constant matrix:
 Low frequencies ---  -10.4166   -0.3818   -0.2250    0.2521   12.6252   43.3900
 Low frequencies ---  373.0825  476.9188 1071.4025
 Diagonal vibrational polarizability:
        0.0000000       0.0000000       0.0000000
 Harmonic frequencies (cm**-1), IR intensities (KM/Mole), Raman scattering
 activities (A**4/AMU), depolarization ratios for plane and unpolarized
 incident light, reduced masses (AMU), force constants (mDyne/A),
 and normal coordinates:
                      1                      2                      3
                      A                      A                      A
 Frequencies --    373.0816               476.9167              1071.4025
 Red. masses --      1.3160                 1.0625                 1.1009
 Frc consts  --      0.1079                 0.1424                 0.7446
 IR Inten    --      0.0000                 0.0000                 0.0000
  Atom  AN      X      Y      Z        X      Y      Z        X      Y      Z
     1   1    -0.01   0.00  -0.15    -0.05   0.04   0.81     0.53  -0.28   0.05
     2   1     0.09   0.06   0.59     0.00   0.08   0.52     0.51  -0.23   0.08
     3   1     0.09  -0.10   0.76     0.04   0.05  -0.23    -0.53  -0.17  -0.06
     4   6    -0.01   0.00  -0.16    -0.00  -0.01  -0.02     0.02   0.07  -0.00
     5   8    -0.00  -0.00   0.04     0.00  -0.00  -0.06    -0.05  -0.01  -0.00
                      4                      5                      6
                      A                      A                      A
 Frequencies --   1220.5813              1387.5206              1471.0223
 Red. masses --      5.4198                 1.2590                 1.1396
 Frc consts  --      4.7574                 1.4281                 1.4529
 IR Inten    --      0.0000                 0.0000                 0.0000
  Atom  AN      X      Y      Z        X      Y      Z        X      Y      Z
     1   1     0.09   0.09  -0.00     0.79  -0.30   0.04     0.03  -0.01   0.01
     2   1    -0.23  -0.03   0.04    -0.42   0.10  -0.02     0.57  -0.42  -0.05
     3   1    -0.76  -0.03  -0.01     0.29   0.04   0.04     0.62   0.31  -0.05
     4   6    -0.43   0.10  -0.02    -0.06  -0.10  -0.00    -0.11   0.01  -0.00
     5   8     0.38  -0.07   0.01     0.00   0.08  -0.00     0.00   0.00   0.01
                      7                      8                      9
                      A                      A                      A
 Frequencies --   3142.4313              3296.4383              3889.1255
 Red. masses --      1.0454                 1.1254                 1.0670
 Frc consts  --      6.0824                 7.2054                 9.5090
 IR Inten    --      0.0000                 0.0000                 0.0000
  Atom  AN      X      Y      Z        X      Y      Z        X      Y      Z
     1   1    -0.00   0.01  -0.00     0.02   0.00  -0.00     0.44   0.90  -0.02
     2   1    -0.30  -0.50   0.08     0.42   0.68  -0.12    -0.01   0.00  -0.00
     3   1    -0.31   0.73   0.12    -0.22   0.52   0.10     0.01  -0.01  -0.00
     4   6     0.05  -0.02  -0.02    -0.02  -0.10   0.00     0.00  -0.00   0.00
     5   8    -0.00  -0.00  -0.00    -0.00   0.00   0.00    -0.03  -0.06   0.00

 -------------------
 - Thermochemistry -
 -------------------
 Temperature   298.150 Kelvin.  Pressure   1.00000 Atm.
 Atom     1 has atomic number  1 and mass   1.00783
 Atom     2 has atomic number  1 and mass   1.00783
 Atom     3 has atomic number  1 and mass   1.00783
 Atom     4 has atomic number  6 and mass  12.00000
 Atom     5 has atomic number  8 and mass  15.99491
 Molecular mass:    31.01839 amu.
 Principal axes and moments of inertia in atomic units:
                           1         2         3
     Eigenvalues --     9.26588  60.03191  68.89142
           X            0.99850   0.05212  -0.01700
           Y           -0.05204   0.99863   0.00523
           Z            0.01724  -0.00433   0.99984
 This molecule is an asymmetric top.
 Rotational symmetry number  1.
 Rotational temperatures (Kelvin)      9.34762     1.44280     1.25725
 Rotational constants (GHZ):         194.77276    30.06303    26.19690
 Zero-point vibrational energy      97666.2 (Joules/Mol)
                                   23.34279 (Kcal/Mol)
 Warning -- explicit consideration of   2 degrees of freedom as
           vibrations may cause significant error
 Vibrational temperatures:    536.78   686.18  1541.51  1756.14  1996.33
          (Kelvin)           2116.47  4521.26  4742.84  5595.58
 
 Zero-point correction=                           0.037199 (Hartree/Particle)
 Thermal correction to Energy=                    0.040667
 Thermal correction to Enthalpy=                  0.041611
 Thermal correction to Gibbs Free Energy=         0.014138
 Sum of electronic and zero-point Energies=           -575.264730
 Sum of electronic and thermal Energies=              -575.261263
 Sum of electronic and thermal Enthalpies=            -575.260318
 Sum of electronic and thermal Free Energies=         -575.287791
 
                     E (Thermal)             CV                S
                      KCal/Mol        Cal/Mol-Kelvin    Cal/Mol-Kelvin
 Total                   25.519              9.481             57.821
 Electronic               0.000              0.000              1.377
 Translational            0.889              2.981             36.229
 Rotational               0.889              2.981             18.289
 Vibrational             23.741              3.519              1.926
 Vibration     1          0.744              1.527              1.067
 Vibration     2          0.833              1.301              0.718
                       Q            Log10(Q)             Ln(Q)
 Total Bot       0.313988D-06         -6.503086        -14.973910
 Total V=0       0.404855D+11         10.607299         24.424209
 Vib (Bot)       0.104337D-16        -16.981562        -39.101491
 Vib (Bot)    1  0.486957D+00         -0.312509         -0.719579
 Vib (Bot)    2  0.351608D+00         -0.453941         -1.045237
 Vib (V=0)       0.134532D+01          0.128824          0.296628
 Vib (V=0)    1  0.119795D+01          0.078437          0.180608
 Vib (V=0)    2  0.111125D+01          0.045812          0.105487
 Electronic      0.200000D+01          0.301030          0.693147
 Translational   0.679020D+07          6.831883         15.730991
 Rotational      0.221596D+04          3.345563          7.703443
 ***** Axes restored to original set *****
 -------------------------------------------------------------------
 Center     Atomic                   Forces (Hartrees/Bohr)
 Number     Number              X              Y              Z
 -------------------------------------------------------------------
      1        1           0.000006244   -0.000022859   -0.000009687
      2        1          -0.000031085   -0.000033565   -0.000028914
      3        1           0.000020963   -0.000009160   -0.000028363
      4        6           0.000051885    0.000051143    0.000097666
      5        8          -0.000050584    0.000020630   -0.000024292
 -------------------------------------------------------------------
 Cartesian Forces:  Max     0.000097666 RMS     0.000039440
 Force constants in Cartesian coordinates: 
                1             2             3             4             5 
      1  0.468050D+00
      2  0.828133D-02  0.575407D-02
      3  0.175694D+00  0.318882D-02  0.131116D+00
      4  0.689365D-03 -0.441449D-04  0.329249D-02  0.294514D+00
      5  0.563491D-03  0.307919D-02  0.102367D-03  0.458023D-01  0.124857D-01
      6 -0.268029D-02 -0.910391D-03 -0.586070D-02  0.127004D+00  0.275342D-01
      7 -0.129671D-02 -0.176244D-03 -0.623842D-03 -0.972037D-02  0.557940D-02
      8  0.115269D-02 -0.212577D-02 -0.397356D-03 -0.438307D-02  0.461097D-04
      9  0.322774D-02 -0.322434D-03  0.350934D-02 -0.986945D-02  0.332636D-02
     10  0.773542D-02  0.494878D-04 -0.463520D-01 -0.296967D+00 -0.534711D-01
     11 -0.206492D-02 -0.435927D-05 -0.417497D-03 -0.427090D-01 -0.123835D-01
     12  0.146312D-01  0.116231D-02 -0.286198D-01 -0.122289D+00 -0.297363D-01
     13 -0.475182D+00 -0.811104D-02 -0.132035D+00  0.114932D-01  0.152446D-02
     14 -0.793244D-02 -0.670633D-02 -0.247665D-02  0.133778D-02 -0.323323D-02
     15 -0.190863D+00 -0.311855D-02 -0.100146D+00  0.184645D-02 -0.122939D-02
                6             7             8             9            10 
      6  0.127018D+00
      7  0.135267D-01  0.291548D+00
      8  0.219662D-02 -0.590398D-01  0.163956D-01
      9  0.787704D-02 -0.114953D+00  0.307982D-01  0.113431D+00
     10 -0.108547D+00 -0.290111D+00  0.660650D-01  0.919019D-01  0.690006D+00
     11 -0.240051D-01  0.553264D-01 -0.175650D-01 -0.273196D-01 -0.141200D-01
     12 -0.104888D+00  0.103626D+00 -0.316365D-01 -0.957499D-01  0.223985D-01
     13 -0.293199D-01  0.959426D-02 -0.379601D-02  0.296953D-01 -0.110692D+00
     14 -0.481392D-02 -0.169561D-02  0.324269D-02 -0.648091D-02  0.147912D-02
     15 -0.241518D-01 -0.156200D-02 -0.963504D-03 -0.290686D-01  0.406014D-01
               11            12            13            14            15 
     11  0.333303D-01
     12  0.549073D-01  0.585481D+00
     13  0.356980D-02 -0.183480D-01  0.564797D+00
     14 -0.336125D-02  0.530635D-02  0.681222D-02  0.100571D-01
     15 -0.316047D-02 -0.356180D+00  0.149997D+00  0.846595D-02  0.509510D+00
 Leave Link  716 at Wed Apr 10 09:21:21 2024, MaxMem=   104857600 cpu:               0.0 elap:               0.0
 (Enter /opt/g16/l103.exe)

 GradGradGradGradGradGradGradGradGradGradGradGradGradGradGradGradGradGrad
 Berny optimization.
 Search for a local minimum.
 Step number   1 out of a maximum of    2
 All quantities printed in internal units (Hartrees-Bohrs-Radians)
 Second derivative matrix not updated -- analytic derivatives used.
 The second derivative matrix:
                          X1        Y1        Z1        X2        Y2
           X1           0.46805
           Y1           0.00828   0.00575
           Z1           0.17569   0.00319   0.13112
           X2           0.00069  -0.00004   0.00329   0.29451
           Y2           0.00056   0.00308   0.00010   0.04580   0.01249
           Z2          -0.00268  -0.00091  -0.00586   0.12700   0.02753
           X3          -0.00130  -0.00018  -0.00062  -0.00972   0.00558
           Y3           0.00115  -0.00213  -0.00040  -0.00438   0.00005
           Z3           0.00323  -0.00032   0.00351  -0.00987   0.00333
           X4           0.00774   0.00005  -0.04635  -0.29697  -0.05347
           Y4          -0.00206  -0.00000  -0.00042  -0.04271  -0.01238
           Z4           0.01463   0.00116  -0.02862  -0.12229  -0.02974
           X5          -0.47518  -0.00811  -0.13204   0.01149   0.00152
           Y5          -0.00793  -0.00671  -0.00248   0.00134  -0.00323
           Z5          -0.19086  -0.00312  -0.10015   0.00185  -0.00123
                          Z2        X3        Y3        Z3        X4
           Z2           0.12702
           X3           0.01353   0.29155
           Y3           0.00220  -0.05904   0.01640
           Z3           0.00788  -0.11495   0.03080   0.11343
           X4          -0.10855  -0.29011   0.06607   0.09190   0.69001
           Y4          -0.02401   0.05533  -0.01756  -0.02732  -0.01412
           Z4          -0.10489   0.10363  -0.03164  -0.09575   0.02240
           X5          -0.02932   0.00959  -0.00380   0.02970  -0.11069
           Y5          -0.00481  -0.00170   0.00324  -0.00648   0.00148
           Z5          -0.02415  -0.00156  -0.00096  -0.02907   0.04060
                          Y4        Z4        X5        Y5        Z5
           Y4           0.03333
           Z4           0.05491   0.58548
           X5           0.00357  -0.01835   0.56480
           Y5          -0.00336   0.00531   0.00681   0.01006
           Z5          -0.00316  -0.35618   0.15000   0.00847   0.50951
 ITU=  0
     Eigenvalues ---    0.01251   0.01698   0.05205   0.10598   0.16284
     Eigenvalues ---    0.37354   0.76943   0.89267   1.08513
 Angle between quadratic step and forces=  68.64 degrees.
 Linear search not attempted -- first point.
 B after Tr=    -0.000030    0.000694   -0.000024
         Rot=    1.000000   -0.000024   -0.000011   -0.000071 Ang=  -0.01 deg.
 Variable       Old X    -DE/DX   Delta X   Delta X   Delta X     New X
                                 (Linear)    (Quad)   (Total)
    X1       -1.54758   0.00001   0.00000   0.00006   0.00000  -1.54758
    Y1       -0.07312  -0.00002   0.00000  -0.00218  -0.00161  -0.07473
    Z1       -1.89437  -0.00001   0.00000  -0.00025  -0.00024  -1.89461
    X2        1.74725  -0.00003   0.00000   0.00037   0.00036   1.74761
    Y2        0.26735  -0.00003   0.00000  -0.00247  -0.00164   0.26571
    Z2        2.31546  -0.00003   0.00000   0.00026   0.00020   2.31566
    X3       -1.81237   0.00002   0.00000  -0.00021  -0.00024  -1.81261
    Y3        0.35778  -0.00001   0.00000  -0.00047  -0.00014   0.35764
    Z3        2.26267  -0.00003   0.00000   0.00009   0.00012   2.26280
    X4       -0.02291   0.00005   0.00000   0.00002   0.00003  -0.02289
    Y4       -0.04887   0.00005   0.00000   0.00141   0.00204  -0.04683
    Z4        1.37074   0.00010   0.00000   0.00001  -0.00001   1.37073
    X5        0.12598  -0.00005   0.00000  -0.00010  -0.00015   0.12583
    Y5       -0.04215   0.00002   0.00000   0.00058   0.00135  -0.04079
    Z5       -1.20070  -0.00002   0.00000  -0.00004  -0.00007  -1.20077
         Item               Value     Threshold  Converged?
 Maximum Force            0.000098     0.000450     YES
 RMS     Force            0.000039     0.000300     YES
 Maximum Displacement     0.002039     0.001800     NO 
 RMS     Displacement     0.000880     0.001200     YES
 Predicted change in Energy=-1.081164D-07
 GradGradGradGradGradGradGradGradGradGradGradGradGradGradGradGradGradGrad

 Leave Link  103 at Wed Apr 10 09:21:21 2024, MaxMem=   104857600 cpu:               0.0 elap:               0.0
 (Enter /opt/g16/l9999.exe)
 Unable to Open any file for archive entry.
 1\1\GINC-DESKTOP-1D9QDE1\Freq\External='python3 -u ../pes/h3co_pes.py'
 \ZDO\C1H3O1(2)\JH-LI\10-Apr-2024\0\\#p external="python3 -u ../pes/h3c
 o_pes.py" freq geom=allcheck\\CH2OH\\0,2\H,-0.818946171,-0.0386933579,
 -1.0024549395\H,0.924606145,0.1414740621,1.225286545\H,-0.9590658267,0
 .1893303782,1.197354124\C,-0.0121240303,-0.02585883,0.7253653935\O,0.0
 666663108,-0.0223025692,-0.6353833907\\Version=ES64L-G16RevC.01\HF=-57
 5.3019292\S2=0.\S2-1=0.\S2A=0.\RMSD=0.000e+00\RMSF=3.944e-05\ZeroPoint
 =0.0371991\Thermal=0.0406666\ETot=-575.2612626\HTot=-575.2603184\GTot=
 -575.2877911\Dipole=0.,0.,0.\PG=C01 [X(C1H3O1)]\NImag=0\\0.46804969,0.
 00828133,0.00575407,0.17569416,0.00318882,0.13111646,0.00068936,-0.000
 04414,0.00329249,0.29451408,0.00056349,0.00307919,0.00010237,0.0458022
 7,0.01248571,-0.00268029,-0.00091039,-0.00586070,0.12700427,0.02753416
 ,0.12701801,-0.00129671,-0.00017624,-0.00062384,-0.00972037,0.00557940
 ,0.01352668,0.29154803,0.00115269,-0.00212577,-0.00039736,-0.00438307,
 0.00004611,0.00219662,-0.05903977,0.01639561,0.00322774,-0.00032243,0.
 00350934,-0.00986945,0.00332636,0.00787704,-0.11495304,0.03079825,0.11
 343085,0.00773542,0.00004949,-0.04635196,-0.29696679,-0.05347114,-0.10
 854700,-0.29011119,0.06606502,0.09190195,0.69000559,-0.00206492,-0.000
 00436,-0.00041750,-0.04270904,-0.01238348,-0.02400514,0.05532637,-0.01
 756497,-0.02731956,-0.01412002,0.03333027,0.01463121,0.00116231,-0.028
 61976,-0.12228940,-0.02973626,-0.10488758,0.10362610,-0.03163652,-0.09
 574988,0.02239849,0.05490733,0.58548134,-0.47518227,-0.00811104,-0.132
 03530,0.01149324,0.00152446,-0.02931985,0.00959426,-0.00379601,0.02969
 526,-0.11069193,0.00356980,-0.01834797,0.56479657,-0.00793244,-0.00670
 633,-0.00247665,0.00133778,-0.00323323,-0.00481392,-0.00169561,0.00324
 269,-0.00648091,0.00147912,-0.00336125,0.00530635,0.00681222,0.0100571
 5,-0.19086265,-0.00311855,-0.10014593,0.00184645,-0.00122939,-0.024151
 79,-0.00156200,-0.00096350,-0.02906857,0.04060140,-0.00316047,-0.35618
 044,0.14999657,0.00846595,0.50950979\\-0.00000624,0.00002286,0.0000096
 9,0.00003109,0.00003357,0.00002891,-0.00002096,0.00000916,0.00002836,-
 0.00005189,-0.00005114,-0.00009767,0.00005058,-0.00002063,0.00002429\\
 \@
 The archive entry for this job was punched.


 YOU ARE IN A MAZE OF TWISTY LITTLE PASSAGES.
 Job cpu time:       0 days  0 hours  0 minutes  0.4 seconds.
 Elapsed time:       0 days  0 hours  0 minutes  1.4 seconds.
 File lengths (MBytes):  RWF=      6 Int=      0 D2E=      0 Chk=      1 Scr=      1
 Normal termination of Gaussian 16 at Wed Apr 10 09:21:21 2024.
