 Entering Gaussian System, Link 0=g16
 Initial command:
 /opt/g16/l1.exe "/home/jh-li/scratch/g16/Gau-1452737.inp" -scrdir="/home/jh-li/scratch/g16/"
 Entering Link 1 = /opt/g16/l1.exe PID=   1452740.
  
 Copyright (c) 1988-2019, Gaussian, Inc.  All Rights Reserved.
  
 This is part of the Gaussian(R) 16 program.  It is based on
 the Gaussian(R) 09 system (copyright 2009, Gaussian, Inc.),
 the Gaussian(R) 03 system (copyright 2003, Gaussian, Inc.),
 the Gaussian(R) 98 system (copyright 1998, Gaussian, Inc.),
 the Gaussian(R) 94 system (copyright 1995, Gaussian, Inc.),
 the Gaussian 92(TM) system (copyright 1992, Gaussian, Inc.),
 the Gaussian 90(TM) system (copyright 1990, Gaussian, Inc.),
 the Gaussian 88(TM) system (copyright 1988, Gaussian, Inc.),
 the Gaussian 86(TM) system (copyright 1986, Carnegie Mellon
 University), and the Gaussian 82(TM) system (copyright 1983,
 Carnegie Mellon University). Gaussian is a federally registered
 trademark of Gaussian, Inc.
  
 This software contains proprietary and confidential information,
 including trade secrets, belonging to Gaussian, Inc.
  
 This software is provided under written license and may be
 used, copied, transmitted, or stored only in accord with that
 written license.
  
 The following legend is applicable only to US Government
 contracts under FAR:
  
                    RESTRICTED RIGHTS LEGEND
  
 Use, reproduction and disclosure by the US Government is
 subject to restrictions as set forth in subparagraphs (a)
 and (c) of the Commercial Computer Software - Restricted
 Rights clause in FAR 52.227-19.
  
 Gaussian, Inc.
 340 Quinnipiac St., Bldg. 40, Wallingford CT 06492
  
  
 ---------------------------------------------------------------
 Warning -- This program may not be used in any manner that
 competes with the business of Gaussian, Inc. or will provide
 assistance to any competitor of Gaussian, Inc.  The licensee
 of this program is prohibited from giving any competitor of
 Gaussian, Inc. access to this program.  By using this program,
 the user acknowledges that Gaussian, Inc. is engaged in the
 business of creating and licensing software in the field of
 computational chemistry and represents and warrants to the
 licensee that it is not a competitor of Gaussian, Inc. and that
 it will not use this program in any manner prohibited above.
 ---------------------------------------------------------------
  

 Cite this work as:
 Gaussian 16, Revision C.01,
 M. J. Frisch, G. W. Trucks, H. B. Schlegel, G. E. Scuseria, 
 M. A. Robb, J. R. Cheeseman, G. Scalmani, V. Barone, 
 G. A. Petersson, H. Nakatsuji, X. Li, M. Caricato, A. V. Marenich, 
 J. Bloino, B. G. Janesko, R. Gomperts, B. Mennucci, H. P. Hratchian, 
 J. V. Ortiz, A. F. Izmaylov, J. L. Sonnenberg, D. Williams-Young, 
 F. Ding, F. Lipparini, F. Egidi, J. Goings, B. Peng, A. Petrone, 
 T. Henderson, D. Ranasinghe, V. G. Zakrzewski, J. Gao, N. Rega, 
 G. Zheng, W. Liang, M. Hada, M. Ehara, K. Toyota, R. Fukuda, 
 J. Hasegawa, M. Ishida, T. Nakajima, Y. Honda, O. Kitao, H. Nakai, 
 T. Vreven, K. Throssell, J. A. Montgomery, Jr., J. E. Peralta, 
 F. Ogliaro, M. J. Bearpark, J. J. Heyd, E. N. Brothers, K. N. Kudin, 
 V. N. Staroverov, T. A. Keith, R. Kobayashi, J. Normand, 
 K. Raghavachari, A. P. Rendell, J. C. Burant, S. S. Iyengar, 
 J. Tomasi, M. Cossi, J. M. Millam, M. Klene, C. Adamo, R. Cammi, 
 J. W. Ochterski, R. L. Martin, K. Morokuma, O. Farkas, 
 J. B. Foresman, and D. J. Fox, Gaussian, Inc., Wallingford CT, 2019.
 
 ******************************************
 Gaussian 16:  ES64L-G16RevC.01  3-Jul-2019
                10-Apr-2024 
 ******************************************
 %nproc=1
 Will use up to    1 processors via shared memory.
 %chk=CH3OH-opt-freq.chk
 --------------------------------------------------------
 #p external="python3 -u ../pes/ch3oh_pes.py" opt=nomicro
 --------------------------------------------------------
 1/18=20,19=15,26=1,38=1/1,3;
 2/9=110,12=2,17=6,18=5,40=1/2;
 3/11=9,25=1,30=1,41=9900000,43=2,71=1/1;
 4/20=17,22=1,24=3,113=1,114=1/2;
 6/7=2,8=2,9=2,10=2/1;
 7/44=-1/16;
 1/18=20,19=15,26=1/3(2);
 2/9=110/2;
 99//99;
 2/9=110/2;
 3/11=9,25=1,30=1,41=9900000,43=2,71=1/1;
 4/16=2,20=17,22=1,24=3,113=1,114=1/2;
 7/44=-1/16;
 1/18=20,19=15,26=1/3(-4);
 2/9=110/2;
 6/7=2,8=2,9=2,10=2/1;
 99/9=10/99;
 Leave Link    1 at Wed Apr 10 09:27:45 2024, MaxMem=           0 cpu:               0.0 elap:               0.0
 (Enter /opt/g16/l101.exe)
 -----
 CH3OH
 -----
 Symbolic Z-matrix:
 Charge =  0 Multiplicity = 1
 H                    -0.82853   0.       -1.03896 
 H                     1.00979   0.        1.09744 
 H                    -0.52029   0.89046   1.10866 
 H                    -0.52029  -0.89046   1.10866 
 C                    -0.01316   0.        0.72812 
 O                     0.06402   0.       -0.68998 
 
 ITRead=  0  0  0  0  0  0
 MicOpt= -1 -1 -1 -1 -1 -1
 NAtoms=      6 NQM=        6 NQMF=       0 NMMI=      0 NMMIF=      0
                NMic=       0 NMicF=      0.
                    Isotopes and Nuclear Properties:
 (Nuclear quadrupole moments (NQMom) in fm**2, nuclear magnetic moments (NMagM)
  in nuclear magnetons)

  Atom         1           2           3           4           5           6
 IAtWgt=           1           1           1           1          12          16
 AtmWgt=   1.0078250   1.0078250   1.0078250   1.0078250  12.0000000  15.9949146
 NucSpn=           1           1           1           1           0           0
 AtZEff=  -0.0000000  -0.0000000  -0.0000000  -0.0000000  -0.0000000  -0.0000000
 NQMom=    0.0000000   0.0000000   0.0000000   0.0000000   0.0000000   0.0000000
 NMagM=    2.7928460   2.7928460   2.7928460   2.7928460   0.0000000   0.0000000
 AtZNuc=   1.0000000   1.0000000   1.0000000   1.0000000   6.0000000   8.0000000
 Leave Link  101 at Wed Apr 10 09:27:45 2024, MaxMem=   104857600 cpu:               0.2 elap:               0.2
 (Enter /opt/g16/l103.exe)

 GradGradGradGradGradGradGradGradGradGradGradGradGradGradGradGradGradGrad
 Berny optimization.
 Initialization pass.
                           ----------------------------
                           !    Initial Parameters    !
                           ! (Angstroms and Degrees)  !
 --------------------------                            --------------------------
 ! Name  Definition              Value          Derivative Info.                !
 --------------------------------------------------------------------------------
 ! R1    R(1,6)                  0.9584         estimate D2E/DX2                !
 ! R2    R(2,5)                  1.0876         estimate D2E/DX2                !
 ! R3    R(3,5)                  1.0931         estimate D2E/DX2                !
 ! R4    R(4,5)                  1.0931         estimate D2E/DX2                !
 ! R5    R(5,6)                  1.4202         estimate D2E/DX2                !
 ! A1    A(2,5,3)              108.5508         estimate D2E/DX2                !
 ! A2    A(2,5,4)              108.5508         estimate D2E/DX2                !
 ! A3    A(2,5,6)              106.7362         estimate D2E/DX2                !
 ! A4    A(3,5,4)              109.096          estimate D2E/DX2                !
 ! A5    A(3,5,6)              111.8898         estimate D2E/DX2                !
 ! A6    A(4,5,6)              111.8898         estimate D2E/DX2                !
 ! A7    A(1,6,5)              108.24           estimate D2E/DX2                !
 ! D1    D(2,5,6,1)            180.0            estimate D2E/DX2                !
 ! D2    D(3,5,6,1)            -61.3896         estimate D2E/DX2                !
 ! D3    D(4,5,6,1)             61.3896         estimate D2E/DX2                !
 --------------------------------------------------------------------------------
 Trust Radius=3.00D-01 FncErr=1.00D-07 GrdErr=1.00D-07 EigMax=2.50D+02 EigMin=1.00D-04
 Number of steps in this run=     25 maximum allowed number of steps=    100.
 GradGradGradGradGradGradGradGradGradGradGradGradGradGradGradGradGradGrad

 Leave Link  103 at Wed Apr 10 09:27:45 2024, MaxMem=   104857600 cpu:               0.0 elap:               0.0
 (Enter /opt/g16/l202.exe)
                          Input orientation:                          
 ---------------------------------------------------------------------
 Center     Atomic      Atomic             Coordinates (Angstroms)
 Number     Number       Type             X           Y           Z
 ---------------------------------------------------------------------
      1          1           0       -0.828535    0.000000   -1.038964
      2          1           0        1.009790    0.000000    1.097441
      3          1           0       -0.520294    0.890456    1.108660
      4          1           0       -0.520294   -0.890456    1.108660
      5          6           0       -0.013162    0.000000    0.728118
      6          8           0        0.064018    0.000000   -0.689981
 ---------------------------------------------------------------------
                    Distance matrix (angstroms):
                    1          2          3          4          5
     1  H    0.000000
     2  H    2.818451   0.000000
     3  H    2.345253   1.770366   0.000000
     4  H    2.345253   1.770366   1.780912   0.000000
     5  C    1.946127   1.087581   1.093118   1.093118   0.000000
     6  O    0.958352   2.022218   2.090321   2.090321   1.420198
                    6
     6  O    0.000000
 Stoichiometry    CH4O
 Framework group  CS[SG(CH2O),X(H2)]
 Deg. of freedom     8
 Full point group                 CS      NOp   2
 Largest Abelian subgroup         CS      NOp   2
 Largest concise Abelian subgroup CS      NOp   2
                         Standard orientation:                         
 ---------------------------------------------------------------------
 Center     Atomic      Atomic             Coordinates (Angstroms)
 Number     Number       Type             X           Y           Z
 ---------------------------------------------------------------------
      1          1           0        0.863527   -1.056077    0.000000
      2          1           0       -1.088183    0.977268    0.000000
      3          1           0        0.439031    1.071622    0.890456
      4          1           0        0.439031    1.071622   -0.890456
      5          6           0       -0.046672    0.664082    0.000000
      6          8           0       -0.046672   -0.756116    0.000000
 ---------------------------------------------------------------------
 Rotational constants (GHZ):         128.5621704          24.8294175          23.9645748
 Leave Link  202 at Wed Apr 10 09:27:45 2024, MaxMem=   104857600 cpu:               0.0 elap:               0.0
 (Enter /opt/g16/l301.exe)
 Standard basis: STO-3G (5D, 7F)
 Ernie: Thresh=  0.10000D-02 Tol=  0.10000D-05 Strict=F.
 There are    11 symmetry adapted cartesian basis functions of A'  symmetry.
 There are     3 symmetry adapted cartesian basis functions of A"  symmetry.
 There are    11 symmetry adapted basis functions of A'  symmetry.
 There are     3 symmetry adapted basis functions of A"  symmetry.
    14 basis functions,    42 primitive gaussians,    14 cartesian basis functions
     9 alpha electrons        9 beta electrons
       nuclear repulsion energy        40.3405646606 Hartrees.
 IExCor=    0 DFT=F Ex=HF Corr=None ExCW=0 ScaHFX=  1.000000
 ScaDFX=  1.000000  1.000000  1.000000  1.000000 ScalE2=  1.000000  1.000000
 IRadAn=      5 IRanWt=     -1 IRanGd=            0 ICorTp=0 IEmpDi=  4
 NAtoms=    6 NActive=    6 NUniq=    5 SFac= 1.44D+00 NAtFMM=   60 NAOKFM=F Big=F
 Integral buffers will be    131072 words long.
 Raffenetti 1 integral format.
 Two-electron integral symmetry is turned on.
 Leave Link  301 at Wed Apr 10 09:27:45 2024, MaxMem=   104857600 cpu:               0.0 elap:               0.0
 (Enter /opt/g16/l402.exe)
 External calculation of energy and first derivatives.
 Running external command "python3 -u ../pes/ch3oh_pes.py R"
         input file       "/home/jh-li/scratch/g16/Gau-1452740.EIn"
         output file      "/home/jh-li/scratch/g16/Gau-1452740.EOu"
         message file     "/home/jh-li/scratch/g16/Gau-1452740.EMs"
         fchk file        "/home/jh-li/scratch/g16/Gau-1452740.EFC"
         mat. el file     "/home/jh-li/scratch/g16/Gau-1452740.EUF"
 Recovered energy= -575.295994425     dipole=      0.000000000000      0.000000000000      0.000000000000
 Energy=    -575.295994     NIter=   0.
 Dipole moment=       0.000000       0.000000       0.000000
 Leave Link  402 at Wed Apr 10 09:27:45 2024, MaxMem=   104857600 cpu:               0.0 elap:               0.2
 (Enter /opt/g16/l601.exe)
 Leave Link  601 at Wed Apr 10 09:27:45 2024, MaxMem=   104857600 cpu:               0.0 elap:               0.0
 (Enter /opt/g16/l716.exe)
 Dipole        = 0.00000000D+00 0.00000000D+00 0.00000000D+00
 ***** Axes restored to original set *****
 -------------------------------------------------------------------
 Center     Atomic                   Forces (Hartrees/Bohr)
 Number     Number              X              Y              Z
 -------------------------------------------------------------------
      1        1          -0.000570097   -0.000000000    0.000094395
      2        1          -0.000386252   -0.000000000    0.000130295
      3        1          -0.000146586    0.000173346   -0.000079773
      4        1          -0.000146586   -0.000173346   -0.000079773
      5        6           0.000816989   -0.000000000    0.000453241
      6        8           0.000426480   -0.000000000   -0.000522695
 -------------------------------------------------------------------
 Cartesian Forces:  Max     0.000816989 RMS     0.000328623
 Leave Link  716 at Wed Apr 10 09:27:45 2024, MaxMem=   104857600 cpu:               0.0 elap:               0.0
 (Enter /opt/g16/l103.exe)

 GradGradGradGradGradGradGradGradGradGradGradGradGradGradGradGradGradGrad
 Berny optimization.
 FormGI is forming the generalized inverse of G from B-inverse, IUseBI=4.
 Internal  Forces:  Max     0.000532038 RMS     0.000300546
 Search for a local minimum.
 Step number   1 out of a maximum of   25
 All quantities printed in internal units (Hartrees-Bohrs-Radians)
 RMS Force = .30055D-03 SwitMx=.10000D-02 MixMth= 2
 Mixed Optimization -- En-DIIS/RFO-DIIS
 Second derivative matrix not updated -- first step.
 The second derivative matrix:
                          R1        R2        R3        R4        R5
           R1           0.55829
           R2           0.00000   0.35094
           R3           0.00000   0.00000   0.34455
           R4           0.00000   0.00000   0.00000   0.34455
           R5           0.00000   0.00000   0.00000   0.00000   0.42431
           A1           0.00000   0.00000   0.00000   0.00000   0.00000
           A2           0.00000   0.00000   0.00000   0.00000   0.00000
           A3           0.00000   0.00000   0.00000   0.00000   0.00000
           A4           0.00000   0.00000   0.00000   0.00000   0.00000
           A5           0.00000   0.00000   0.00000   0.00000   0.00000
           A6           0.00000   0.00000   0.00000   0.00000   0.00000
           A7           0.00000   0.00000   0.00000   0.00000   0.00000
           D1           0.00000   0.00000   0.00000   0.00000   0.00000
           D2           0.00000   0.00000   0.00000   0.00000   0.00000
           D3           0.00000   0.00000   0.00000   0.00000   0.00000
                          A1        A2        A3        A4        A5
           A1           0.16000
           A2           0.00000   0.16000
           A3           0.00000   0.00000   0.16000
           A4           0.00000   0.00000   0.00000   0.16000
           A5           0.00000   0.00000   0.00000   0.00000   0.16000
           A6           0.00000   0.00000   0.00000   0.00000   0.00000
           A7           0.00000   0.00000   0.00000   0.00000   0.00000
           D1           0.00000   0.00000   0.00000   0.00000   0.00000
           D2           0.00000   0.00000   0.00000   0.00000   0.00000
           D3           0.00000   0.00000   0.00000   0.00000   0.00000
                          A6        A7        D1        D2        D3
           A6           0.16000
           A7           0.00000   0.16000
           D1           0.00000   0.00000   0.01425
           D2           0.00000   0.00000   0.00000   0.01425
           D3           0.00000   0.00000   0.00000   0.00000   0.01425
 ITU=  0
     Eigenvalues ---    0.01425   0.09940   0.10549   0.16000   0.16000
     Eigenvalues ---    0.16000   0.16000   0.34455   0.34455   0.35094
     Eigenvalues ---    0.42431   0.55829
 RFO step:  Lambda=-6.62002073D-06 EMin= 1.42460614D-02
 Linear search not attempted -- first point.
 Iteration  1 RMS(Cart)=  0.00246529 RMS(Int)=  0.00000511
 Iteration  2 RMS(Cart)=  0.00000476 RMS(Int)=  0.00000173
 Iteration  3 RMS(Cart)=  0.00000000 RMS(Int)=  0.00000173
 ITry= 1 IFail=0 DXMaxC= 4.87D-03 DCOld= 1.00D+10 DXMaxT= 3.00D-01 DXLimC= 3.00D+00 Rises=F
 ClnCor:  largest displacement from symmetrization is 1.21D-15 for atom     2.
 Variable       Old X    -DE/DX   Delta X   Delta X   Delta X     New X
                                 (Linear)    (Quad)   (Total)
    R1        1.81102   0.00049   0.00000   0.00087   0.00087   1.81190
    R2        2.05523  -0.00032   0.00000  -0.00091  -0.00091   2.05432
    R3        2.06569   0.00018   0.00000   0.00053   0.00053   2.06622
    R4        2.06569   0.00018   0.00000   0.00053   0.00053   2.06622
    R5        2.68378   0.00042   0.00000   0.00100   0.00100   2.68478
    A1        1.89457  -0.00001   0.00000   0.00034   0.00034   1.89491
    A2        1.89457  -0.00001   0.00000   0.00034   0.00034   1.89491
    A3        1.86290   0.00053   0.00000   0.00373   0.00373   1.86663
    A4        1.90408   0.00007   0.00000  -0.00027  -0.00028   1.90381
    A5        1.95285  -0.00028   0.00000  -0.00197  -0.00197   1.95088
    A6        1.95285  -0.00028   0.00000  -0.00197  -0.00197   1.95088
    A7        1.88914  -0.00052   0.00000  -0.00325  -0.00325   1.88589
    D1        3.14159   0.00000   0.00000  -0.00000   0.00000   3.14159
    D2       -1.07145   0.00016   0.00000   0.00163   0.00163  -1.06982
    D3        1.07145  -0.00016   0.00000  -0.00163  -0.00163   1.06982
         Item               Value     Threshold  Converged?
 Maximum Force            0.000532     0.000450     NO 
 RMS     Force            0.000301     0.000300     NO 
 Maximum Displacement     0.004868     0.001800     NO 
 RMS     Displacement     0.002466     0.001200     NO 
 Predicted change in Energy=-3.308443D-06
 GradGradGradGradGradGradGradGradGradGradGradGradGradGradGradGradGradGrad

 Leave Link  103 at Wed Apr 10 09:27:45 2024, MaxMem=   104857600 cpu:               0.0 elap:               0.0
 (Enter /opt/g16/l202.exe)
                          Input orientation:                          
 ---------------------------------------------------------------------
 Center     Atomic      Atomic             Coordinates (Angstroms)
 Number     Number       Type             X           Y           Z
 ---------------------------------------------------------------------
      1          1           0       -0.830095    0.000000   -1.036388
      2          1           0        1.009730    0.000000    1.099902
      3          1           0       -0.520362    0.890596    1.106765
      4          1           0       -0.520362   -0.890596    1.106765
      5          6           0       -0.011699    0.000000    0.727790
      6          8           0        0.064311    0.000000   -0.690900
 ---------------------------------------------------------------------
                    Distance matrix (angstroms):
                    1          2          3          4          5
     1  H    0.000000
     2  H    2.819342   0.000000
     3  H    2.341409   1.770420   0.000000
     4  H    2.341409   1.770420   1.781192   0.000000
     5  C    1.944762   1.087098   1.093399   1.093399   0.000000
     6  O    0.958814   2.025040   2.089641   2.089641   1.420725
                    6
     6  O    0.000000
 Stoichiometry    CH4O
 Framework group  CS[SG(CH2O),X(H2)]
 Deg. of freedom     8
 Full point group                 CS      NOp   2
 RotChk:  IX=0 Diff= 1.19D-03
 Largest Abelian subgroup         CS      NOp   2
 Largest concise Abelian subgroup CS      NOp   2
                         Standard orientation:                         
 ---------------------------------------------------------------------
 Center     Atomic      Atomic             Coordinates (Angstroms)
 Number     Number       Type             X           Y           Z
 ---------------------------------------------------------------------
      1          1           0        0.864551   -1.053675    0.000000
      2          1           0       -1.086932    0.981122   -0.000000
      3          1           0        0.440600    1.069837    0.890596
      4          1           0        0.440600    1.069837   -0.890596
      5          6           0       -0.047059    0.664191   -0.000000
      6          8           0       -0.047059   -0.756534    0.000000
 ---------------------------------------------------------------------
 Rotational constants (GHZ):         128.4552231          24.8212834          23.9544246
 Leave Link  202 at Wed Apr 10 09:27:45 2024, MaxMem=   104857600 cpu:               0.0 elap:               0.0
 (Enter /opt/g16/l301.exe)
 Standard basis: STO-3G (5D, 7F)
 Ernie: Thresh=  0.10000D-02 Tol=  0.10000D-05 Strict=F.
 There are    11 symmetry adapted cartesian basis functions of A'  symmetry.
 There are     3 symmetry adapted cartesian basis functions of A"  symmetry.
 There are    11 symmetry adapted basis functions of A'  symmetry.
 There are     3 symmetry adapted basis functions of A"  symmetry.
    14 basis functions,    42 primitive gaussians,    14 cartesian basis functions
     9 alpha electrons        9 beta electrons
       nuclear repulsion energy        40.3317599227 Hartrees.
 IExCor=    0 DFT=F Ex=HF Corr=None ExCW=0 ScaHFX=  1.000000
 ScaDFX=  1.000000  1.000000  1.000000  1.000000 ScalE2=  1.000000  1.000000
 IRadAn=      5 IRanWt=     -1 IRanGd=            0 ICorTp=0 IEmpDi=  4
 NAtoms=    6 NActive=    6 NUniq=    5 SFac= 1.44D+00 NAtFMM=   60 NAOKFM=F Big=F
 Integral buffers will be    131072 words long.
 Raffenetti 1 integral format.
 Two-electron integral symmetry is turned on.
 Leave Link  301 at Wed Apr 10 09:27:45 2024, MaxMem=   104857600 cpu:               0.0 elap:               0.0
 (Enter /opt/g16/l402.exe)
 External calculation of energy and first derivatives.
 Running external command "python3 -u ../pes/ch3oh_pes.py R"
         input file       "/home/jh-li/scratch/g16/Gau-1452740.EIn"
         output file      "/home/jh-li/scratch/g16/Gau-1452740.EOu"
         message file     "/home/jh-li/scratch/g16/Gau-1452740.EMs"
         fchk file        "/home/jh-li/scratch/g16/Gau-1452740.EFC"
         mat. el file     "/home/jh-li/scratch/g16/Gau-1452740.EUF"
 Recovered energy= -575.295997375     dipole=      0.000000000000      0.000000000000      0.000000000000
 Energy=    -575.295997     NIter=   0.
 Dipole moment=       0.000000       0.000000       0.000000
 Leave Link  402 at Wed Apr 10 09:27:46 2024, MaxMem=   104857600 cpu:               0.0 elap:               0.2
 (Enter /opt/g16/l716.exe)
 Dipole        = 0.00000000D+00 0.00000000D+00 0.00000000D+00
 ***** Axes restored to original set *****
 -------------------------------------------------------------------
 Center     Atomic                   Forces (Hartrees/Bohr)
 Number     Number              X              Y              Z
 -------------------------------------------------------------------
      1        1          -0.000057533   -0.000000000    0.000041668
      2        1          -0.000025929    0.000000000   -0.000097665
      3        1           0.000016125    0.000015818    0.000023618
      4        1           0.000016125   -0.000015818    0.000023618
      5        6          -0.000116746    0.000000000    0.000257546
      6        8           0.000162003   -0.000000000   -0.000253081
 -------------------------------------------------------------------
 Cartesian Forces:  Max     0.000257546 RMS     0.000102102
 Leave Link  716 at Wed Apr 10 09:27:46 2024, MaxMem=   104857600 cpu:               0.0 elap:               0.0
 (Enter /opt/g16/l103.exe)

 GradGradGradGradGradGradGradGradGradGradGradGradGradGradGradGradGradGrad
 Berny optimization.
 Using GEDIIS/GDIIS optimizer.
 FormGI is forming the generalized inverse of G from B-inverse, IUseBI=4.
 Internal  Forces:  Max     0.000219861 RMS     0.000076775
 Search for a local minimum.
 Step number   2 out of a maximum of   25
 All quantities printed in internal units (Hartrees-Bohrs-Radians)
 RMS Force = .76775D-04 SwitMx=.10000D-02 MixMth= 2
 Mixed Optimization -- En-DIIS/RFO-DIIS
 Swapping is turned off.
 Update second derivatives using D2CorX and points    1    2
 DE= -2.95D-06 DEPred=-3.31D-06 R= 8.92D-01
 TightC=F SS=  1.41D+00  RLast= 6.40D-03 DXNew= 5.0454D-01 1.9215D-02
 Trust test= 8.92D-01 RLast= 6.40D-03 DXMaxT set to 3.00D-01
 The second derivative matrix:
                          R1        R2        R3        R4        R5
           R1           0.55314
           R2           0.00600   0.34550
           R3          -0.00217   0.00239   0.34364
           R4          -0.00217   0.00239  -0.00090   0.34364
           R5          -0.01750   0.01264  -0.00666  -0.00666   0.40334
           A1          -0.00559   0.00353  -0.00208  -0.00208  -0.00418
           A2          -0.00559   0.00353  -0.00208  -0.00208  -0.00418
           A3           0.00087   0.00325  -0.00003  -0.00003  -0.01825
           A4           0.00722  -0.00440   0.00267   0.00267   0.00459
           A5           0.00122  -0.00267   0.00063   0.00063   0.01037
           A6           0.00122  -0.00267   0.00063   0.00063   0.01037
           A7           0.00965  -0.00878   0.00384   0.00384   0.02053
           D1           0.00000  -0.00000   0.00000   0.00000   0.00000
           D2           0.01190  -0.00664   0.00435   0.00435   0.00456
           D3          -0.01190   0.00664  -0.00435  -0.00435  -0.00456
                          A1        A2        A3        A4        A5
           A1           0.15963
           A2          -0.00037   0.15963
           A3          -0.00722  -0.00722   0.17155
           A4           0.00016   0.00016   0.00976   0.16020
           A5           0.00372   0.00372  -0.00365  -0.00493   0.16072
           A6           0.00372   0.00372  -0.00365  -0.00493   0.00072
           A7           0.00576   0.00576   0.00511  -0.00717  -0.00426
           D1          -0.00000  -0.00000   0.00000   0.00000  -0.00000
           D2          -0.00089  -0.00089   0.01775   0.00190  -0.00862
           D3           0.00089   0.00089  -0.01775  -0.00190   0.00862
                          A6        A7        D1        D2        D3
           A6           0.16072
           A7          -0.00426   0.14583
           D1          -0.00000  -0.00000   0.01425
           D2          -0.00862  -0.01087   0.00000   0.02018
           D3           0.00862   0.01087  -0.00000  -0.00594   0.02018
 ITU=  1  0
     Eigenvalues ---    0.01425   0.10533   0.10619   0.14242   0.16000
     Eigenvalues ---    0.16000   0.18665   0.33772   0.34455   0.34756
     Eigenvalues ---    0.40826   0.55559
 En-DIIS/RFO-DIIS/Sim-DIIS IScMMF=       -3 using points:     2    1
 RFO step:  Lambda=-3.56271619D-07.
 NNeg= 0 NGDIIS= 2 SimSw=  2.50D-03 Rises=F DC= -2.95D-06 SmlDif=  1.00D-05
 NRisDI= 0 DoIntr=F SqrtH=F CThrHd= 10.0 CDAdj=  3.0
 RMS Error=  0.3456882687D-03 NUsed= 2 OKEnD=F EnDIS=F
 InvSVX:  RCond= 4.61D-05 Info=           0 Equed=N FErr=  9.69D-16 BErr=  2.51D-17
 DidBck=F Rises=F RFO-DIIS coefs:    0.96677    0.03323
 Iteration  1 RMS(Cart)=  0.00032201 RMS(Int)=  0.00000008
 Iteration  2 RMS(Cart)=  0.00000010 RMS(Int)=  0.00000003
 ITry= 1 IFail=0 DXMaxC= 6.90D-04 DCOld= 1.00D+10 DXMaxT= 3.00D-01 DXLimC= 3.00D+00 Rises=F
 ClnCor:  largest displacement from symmetrization is 3.21D-11 for atom     1.
 Variable       Old X    -DE/DX   Delta X   Delta X   Delta X     New X
                                 (Linear)    (Quad)   (Total)
    R1        1.81190   0.00003  -0.00003   0.00013   0.00010   1.81199
    R2        2.05432  -0.00006   0.00003  -0.00024  -0.00021   2.05411
    R3        2.06622   0.00001  -0.00002   0.00009   0.00007   2.06629
    R4        2.06622   0.00001  -0.00002   0.00009   0.00007   2.06629
    R5        2.68478   0.00022  -0.00003   0.00059   0.00056   2.68534
    A1        1.89491   0.00001  -0.00001   0.00002   0.00001   1.89492
    A2        1.89491   0.00001  -0.00001   0.00002   0.00001   1.89492
    A3        1.86663  -0.00014  -0.00012  -0.00060  -0.00072   1.86591
    A4        1.90381   0.00001   0.00001   0.00021   0.00022   1.90402
    A5        1.95088   0.00005   0.00007   0.00017   0.00023   1.95111
    A6        1.95088   0.00005   0.00007   0.00017   0.00023   1.95111
    A7        1.88589  -0.00009   0.00011  -0.00085  -0.00074   1.88515
    D1        3.14159  -0.00000  -0.00000  -0.00000   0.00000   3.14159
    D2       -1.06982  -0.00004  -0.00005  -0.00026  -0.00031  -1.07014
    D3        1.06982   0.00004   0.00005   0.00026   0.00031   1.07014
         Item               Value     Threshold  Converged?
 Maximum Force            0.000220     0.000450     YES
 RMS     Force            0.000077     0.000300     YES
 Maximum Displacement     0.000690     0.001800     YES
 RMS     Displacement     0.000322     0.001200     YES
 Predicted change in Energy=-1.781417D-07
 Optimization completed.
    -- Stationary point found.
                           ----------------------------
                           !   Optimized Parameters   !
                           ! (Angstroms and Degrees)  !
 --------------------------                            --------------------------
 ! Name  Definition              Value          Derivative Info.                !
 --------------------------------------------------------------------------------
 ! R1    R(1,6)                  0.9588         -DE/DX =    0.0                 !
 ! R2    R(2,5)                  1.0871         -DE/DX =   -0.0001              !
 ! R3    R(3,5)                  1.0934         -DE/DX =    0.0                 !
 ! R4    R(4,5)                  1.0934         -DE/DX =    0.0                 !
 ! R5    R(5,6)                  1.4207         -DE/DX =    0.0002              !
 ! A1    A(2,5,3)              108.5703         -DE/DX =    0.0                 !
 ! A2    A(2,5,4)              108.5703         -DE/DX =    0.0                 !
 ! A3    A(2,5,6)              106.9501         -DE/DX =   -0.0001              !
 ! A4    A(3,5,4)              109.08           -DE/DX =    0.0                 !
 ! A5    A(3,5,6)              111.777          -DE/DX =    0.0                 !
 ! A6    A(4,5,6)              111.777          -DE/DX =    0.0                 !
 ! A7    A(1,6,5)              108.0535         -DE/DX =   -0.0001              !
 ! D1    D(2,5,6,1)            180.0            -DE/DX =    0.0                 !
 ! D2    D(3,5,6,1)            -61.2965         -DE/DX =    0.0                 !
 ! D3    D(4,5,6,1)             61.2965         -DE/DX =    0.0                 !
 --------------------------------------------------------------------------------
 Largest change from initial coordinates is atom    2       0.001 Angstoms.
 GradGradGradGradGradGradGradGradGradGradGradGradGradGradGradGradGradGrad

 Leave Link  103 at Wed Apr 10 09:27:46 2024, MaxMem=   104857600 cpu:               0.0 elap:               0.0
 (Enter /opt/g16/l202.exe)
                          Input orientation:                          
 ---------------------------------------------------------------------
 Center     Atomic      Atomic             Coordinates (Angstroms)
 Number     Number       Type             X           Y           Z
 ---------------------------------------------------------------------
      1          1           0       -0.830095    0.000000   -1.036388
      2          1           0        1.009730   -0.000000    1.099902
      3          1           0       -0.520362    0.890596    1.106765
      4          1           0       -0.520362   -0.890596    1.106765
      5          6           0       -0.011699    0.000000    0.727790
      6          8           0        0.064311   -0.000000   -0.690900
 ---------------------------------------------------------------------
                    Distance matrix (angstroms):
                    1          2          3          4          5
     1  H    0.000000
     2  H    2.819342   0.000000
     3  H    2.341409   1.770420   0.000000
     4  H    2.341409   1.770420   1.781192   0.000000
     5  C    1.944762   1.087098   1.093399   1.093399   0.000000
     6  O    0.958814   2.025040   2.089641   2.089641   1.420725
                    6
     6  O    0.000000
 Stoichiometry    CH4O
 Framework group  CS[SG(CH2O),X(H2)]
 Deg. of freedom     8
 Full point group                 CS      NOp   2
 RotChk:  IX=0 Diff= 1.10D-14
 Largest Abelian subgroup         CS      NOp   2
 Largest concise Abelian subgroup CS      NOp   2
                         Standard orientation:                         
 ---------------------------------------------------------------------
 Center     Atomic      Atomic             Coordinates (Angstroms)
 Number     Number       Type             X           Y           Z
 ---------------------------------------------------------------------
      1          1           0        0.864551   -1.053675   -0.000000
      2          1           0       -1.086932    0.981122    0.000000
      3          1           0        0.440600    1.069837    0.890596
      4          1           0        0.440600    1.069837   -0.890596
      5          6           0       -0.047059    0.664191   -0.000000
      6          8           0       -0.047059   -0.756534    0.000000
 ---------------------------------------------------------------------
 Rotational constants (GHZ):         128.4552231          24.8212834          23.9544246
 Leave Link  202 at Wed Apr 10 09:27:46 2024, MaxMem=   104857600 cpu:               0.0 elap:               0.0
 (Enter /opt/g16/l601.exe)
 Leave Link  601 at Wed Apr 10 09:27:46 2024, MaxMem=   104857600 cpu:               0.0 elap:               0.0
 (Enter /opt/g16/l9999.exe)
 Unable to Open any file for archive entry.
 1\1\GINC-DESKTOP-1D9QDE1\FOpt\External='python3 -u ../pes/ch3oh_pes.py
 '\ZDO\C1H4O1\JH-LI\10-Apr-2024\0\\#p external="python3 -u ../pes/ch3oh
 _pes.py" opt=nomicro\\CH3OH\\0,1\H,-0.830095325,0.,-1.0363878515\H,1.0
 097295382,0.,1.099901635\H,-0.5203617817,0.890596054,1.1067645287\H,-0
 .5203617817,-0.890596054,1.1067645287\C,-0.0116990002,0.,0.7277903937\
 O,0.064311163,0.,-0.6908999282\\Version=ES64L-G16RevC.01\HF=-575.29599
 74\RMSD=0.000e+00\RMSF=1.021e-04\Dipole=0.,0.,0.\PG=CS [SG(C1H2O1),X(H
 2)]\\@
 The archive entry for this job was punched.


 DESK:  A WASTEBASKET WITH DRAWERS.
 Job cpu time:       0 days  0 hours  0 minutes  0.6 seconds.
 Elapsed time:       0 days  0 hours  0 minutes  0.9 seconds.
 File lengths (MBytes):  RWF=      6 Int=      0 D2E=      0 Chk=      1 Scr=      1
 Normal termination of Gaussian 16 at Wed Apr 10 09:27:46 2024.
 Initial command:
 /opt/g16/l1.exe "/home/jh-li/scratch/g16/Gau-1452737.inp" -scrdir="/home/jh-li/scratch/g16/"
 Entering Link 1 = /opt/g16/l1.exe PID=   1452755.
  
 Copyright (c) 1988-2019, Gaussian, Inc.  All Rights Reserved.
  
 This is part of the Gaussian(R) 16 program.  It is based on
 the Gaussian(R) 09 system (copyright 2009, Gaussian, Inc.),
 the Gaussian(R) 03 system (copyright 2003, Gaussian, Inc.),
 the Gaussian(R) 98 system (copyright 1998, Gaussian, Inc.),
 the Gaussian(R) 94 system (copyright 1995, Gaussian, Inc.),
 the Gaussian 92(TM) system (copyright 1992, Gaussian, Inc.),
 the Gaussian 90(TM) system (copyright 1990, Gaussian, Inc.),
 the Gaussian 88(TM) system (copyright 1988, Gaussian, Inc.),
 the Gaussian 86(TM) system (copyright 1986, Carnegie Mellon
 University), and the Gaussian 82(TM) system (copyright 1983,
 Carnegie Mellon University). Gaussian is a federally registered
 trademark of Gaussian, Inc.
  
 This software contains proprietary and confidential information,
 including trade secrets, belonging to Gaussian, Inc.
  
 This software is provided under written license and may be
 used, copied, transmitted, or stored only in accord with that
 written license.
  
 The following legend is applicable only to US Government
 contracts under FAR:
  
                    RESTRICTED RIGHTS LEGEND
  
 Use, reproduction and disclosure by the US Government is
 subject to restrictions as set forth in subparagraphs (a)
 and (c) of the Commercial Computer Software - Restricted
 Rights clause in FAR 52.227-19.
  
 Gaussian, Inc.
 340 Quinnipiac St., Bldg. 40, Wallingford CT 06492
  
  
 ---------------------------------------------------------------
 Warning -- This program may not be used in any manner that
 competes with the business of Gaussian, Inc. or will provide
 assistance to any competitor of Gaussian, Inc.  The licensee
 of this program is prohibited from giving any competitor of
 Gaussian, Inc. access to this program.  By using this program,
 the user acknowledges that Gaussian, Inc. is engaged in the
 business of creating and licensing software in the field of
 computational chemistry and represents and warrants to the
 licensee that it is not a competitor of Gaussian, Inc. and that
 it will not use this program in any manner prohibited above.
 ---------------------------------------------------------------
  

 Cite this work as:
 Gaussian 16, Revision C.01,
 M. J. Frisch, G. W. Trucks, H. B. Schlegel, G. E. Scuseria, 
 M. A. Robb, J. R. Cheeseman, G. Scalmani, V. Barone, 
 G. A. Petersson, H. Nakatsuji, X. Li, M. Caricato, A. V. Marenich, 
 J. Bloino, B. G. Janesko, R. Gomperts, B. Mennucci, H. P. Hratchian, 
 J. V. Ortiz, A. F. Izmaylov, J. L. Sonnenberg, D. Williams-Young, 
 F. Ding, F. Lipparini, F. Egidi, J. Goings, B. Peng, A. Petrone, 
 T. Henderson, D. Ranasinghe, V. G. Zakrzewski, J. Gao, N. Rega, 
 G. Zheng, W. Liang, M. Hada, M. Ehara, K. Toyota, R. Fukuda, 
 J. Hasegawa, M. Ishida, T. Nakajima, Y. Honda, O. Kitao, H. Nakai, 
 T. Vreven, K. Throssell, J. A. Montgomery, Jr., J. E. Peralta, 
 F. Ogliaro, M. J. Bearpark, J. J. Heyd, E. N. Brothers, K. N. Kudin, 
 V. N. Staroverov, T. A. Keith, R. Kobayashi, J. Normand, 
 K. Raghavachari, A. P. Rendell, J. C. Burant, S. S. Iyengar, 
 J. Tomasi, M. Cossi, J. M. Millam, M. Klene, C. Adamo, R. Cammi, 
 J. W. Ochterski, R. L. Martin, K. Morokuma, O. Farkas, 
 J. B. Foresman, and D. J. Fox, Gaussian, Inc., Wallingford CT, 2019.
 
 ******************************************
 Gaussian 16:  ES64L-G16RevC.01  3-Jul-2019
                10-Apr-2024 
 ******************************************
 %nproc=1
 Will use up to    1 processors via shared memory.
 %chk=CH3OH-opt-freq.chk
 ---------------------------------------------------------------
 #p external="python3 -u ../pes/ch3oh_pes.py" freq geom=allcheck
 ---------------------------------------------------------------
 1/10=4,18=10,29=7,30=1,38=1/1,3;
 2/12=2,40=1/2;
 3/11=9,14=-4,25=1,30=1,41=9900000,43=2,71=2,140=1/1;
 4/20=17,22=2,24=3,113=1,114=1/2;
 6/7=2,8=2,9=2,10=2/1;
 7/8=1,25=1,44=-1/16;
 1/10=4,18=10,30=1/3;
 99//99;
 Leave Link    1 at Wed Apr 10 09:27:46 2024, MaxMem=           0 cpu:               0.0 elap:               0.0
 (Enter /opt/g16/l101.exe)
 Structure from the checkpoint file:  "CH3OH-opt-freq.chk"
 -----
 CH3OH
 -----
 Charge =  0 Multiplicity = 1
 Redundant internal coordinates found in file.  (old form).
 H,0,-0.830095325,0.,-1.0363878515
 H,0,1.0097295382,0.,1.099901635
 H,0,-0.5203617817,0.890596054,1.1067645287
 H,0,-0.5203617817,-0.890596054,1.1067645287
 C,0,-0.0116990002,0.,0.7277903937
 O,0,0.064311163,0.,-0.6908999282
 Recover connectivity data from disk.
 ITRead=  0  0  0  0  0  0
 MicOpt= -1 -1 -1 -1 -1 -1
 NAtoms=      6 NQM=        6 NQMF=       0 NMMI=      0 NMMIF=      0
                NMic=       0 NMicF=      0.
                    Isotopes and Nuclear Properties:
 (Nuclear quadrupole moments (NQMom) in fm**2, nuclear magnetic moments (NMagM)
  in nuclear magnetons)

  Atom         1           2           3           4           5           6
 IAtWgt=           1           1           1           1          12          16
 AtmWgt=   1.0078250   1.0078250   1.0078250   1.0078250  12.0000000  15.9949146
 NucSpn=           1           1           1           1           0           0
 AtZEff=   1.0000000   1.0000000   1.0000000   1.0000000   3.6000000   5.6000000
 NQMom=    0.0000000   0.0000000   0.0000000   0.0000000   0.0000000   0.0000000
 NMagM=    2.7928460   2.7928460   2.7928460   2.7928460   0.0000000   0.0000000
 AtZNuc=   1.0000000   1.0000000   1.0000000   1.0000000   6.0000000   8.0000000
 Leave Link  101 at Wed Apr 10 09:27:46 2024, MaxMem=   104857600 cpu:               0.1 elap:               0.1
 (Enter /opt/g16/l103.exe)

 GradGradGradGradGradGradGradGradGradGradGradGradGradGradGradGradGradGrad
 Berny optimization.
 Initialization pass.
 Trust Radius=3.00D-01 FncErr=1.00D-07 GrdErr=1.00D-07 EigMax=2.50D+02 EigMin=1.00D-04
 Number of steps in this run=      2 maximum allowed number of steps=      2.
 GradGradGradGradGradGradGradGradGradGradGradGradGradGradGradGradGradGrad

 Leave Link  103 at Wed Apr 10 09:27:46 2024, MaxMem=   104857600 cpu:               0.0 elap:               0.0
 (Enter /opt/g16/l202.exe)
                          Input orientation:                          
 ---------------------------------------------------------------------
 Center     Atomic      Atomic             Coordinates (Angstroms)
 Number     Number       Type             X           Y           Z
 ---------------------------------------------------------------------
      1          1           0       -0.830095   -0.000000   -1.036388
      2          1           0        1.009730    0.000000    1.099902
      3          1           0       -0.520362    0.890596    1.106765
      4          1           0       -0.520362   -0.890596    1.106765
      5          6           0       -0.011699    0.000000    0.727790
      6          8           0        0.064311    0.000000   -0.690900
 ---------------------------------------------------------------------
                    Distance matrix (angstroms):
                    1          2          3          4          5
     1  H    0.000000
     2  H    2.819342   0.000000
     3  H    2.341409   1.770420   0.000000
     4  H    2.341409   1.770420   1.781192   0.000000
     5  C    1.944762   1.087098   1.093399   1.093399   0.000000
     6  O    0.958814   2.025040   2.089641   2.089641   1.420725
                    6
     6  O    0.000000
 Stoichiometry    CH4O
 Framework group  CS[SG(CH2O),X(H2)]
 Deg. of freedom     8
 Full point group                 CS      NOp   2
 RotChk:  IX=0 Diff= 2.24D-15
 Largest Abelian subgroup         CS      NOp   2
 Largest concise Abelian subgroup CS      NOp   2
                         Standard orientation:                         
 ---------------------------------------------------------------------
 Center     Atomic      Atomic             Coordinates (Angstroms)
 Number     Number       Type             X           Y           Z
 ---------------------------------------------------------------------
      1          1           0        0.864551   -1.053675    0.000000
      2          1           0       -1.086932    0.981122    0.000000
      3          1           0        0.440600    1.069837    0.890596
      4          1           0        0.440600    1.069837   -0.890596
      5          6           0       -0.047059    0.664191    0.000000
      6          8           0       -0.047059   -0.756534    0.000000
 ---------------------------------------------------------------------
 Rotational constants (GHZ):         128.4552231          24.8212834          23.9544246
 Leave Link  202 at Wed Apr 10 09:27:46 2024, MaxMem=   104857600 cpu:               0.0 elap:               0.0
 (Enter /opt/g16/l301.exe)
 Standard basis: STO-3G (5D, 7F)
 Ernie: Thresh=  0.10000D-02 Tol=  0.10000D-05 Strict=F.
 There are    11 symmetry adapted cartesian basis functions of A'  symmetry.
 There are     3 symmetry adapted cartesian basis functions of A"  symmetry.
 There are    11 symmetry adapted basis functions of A'  symmetry.
 There are     3 symmetry adapted basis functions of A"  symmetry.
    14 basis functions,    42 primitive gaussians,    14 cartesian basis functions
     9 alpha electrons        9 beta electrons
       nuclear repulsion energy        40.3317599227 Hartrees.
 IExCor=    0 DFT=F Ex=HF Corr=None ExCW=0 ScaHFX=  1.000000
 ScaDFX=  1.000000  1.000000  1.000000  1.000000 ScalE2=  1.000000  1.000000
 IRadAn=      5 IRanWt=     -1 IRanGd=            0 ICorTp=0 IEmpDi=  4
 NAtoms=    6 NActive=    6 NUniq=    5 SFac= 1.44D+00 NAtFMM=   60 NAOKFM=F Big=F
 Integral buffers will be    131072 words long.
 Raffenetti 1 integral format.
 Two-electron integral symmetry is turned on.
 Leave Link  301 at Wed Apr 10 09:27:46 2024, MaxMem=   104857600 cpu:               0.0 elap:               0.0
 (Enter /opt/g16/l402.exe)
 External calculation of energy, first and second derivatives.
 Running external command "python3 -u ../pes/ch3oh_pes.py R"
         input file       "/home/jh-li/scratch/g16/Gau-1452755.EIn"
         output file      "/home/jh-li/scratch/g16/Gau-1452755.EOu"
         message file     "/home/jh-li/scratch/g16/Gau-1452755.EMs"
         fchk file        "/home/jh-li/scratch/g16/Gau-1452755.EFC"
         mat. el file     "/home/jh-li/scratch/g16/Gau-1452755.EUF"
 Recovered energy= -575.295997375     dipole=      0.000000000000      0.000000000000      0.000000000000
 Energy=    -575.295997     NIter=   0.
 Dipole moment=       0.000000       0.000000       0.000000
 Leave Link  402 at Wed Apr 10 09:27:47 2024, MaxMem=   104857600 cpu:               0.0 elap:               1.5
 (Enter /opt/g16/l601.exe)
 Leave Link  601 at Wed Apr 10 09:27:47 2024, MaxMem=   104857600 cpu:               0.0 elap:               0.0
 (Enter /opt/g16/l716.exe)
 Dipole        = 0.00000000D+00 0.00000000D+00 0.00000000D+00
 Full mass-weighted force constant matrix:
 Low frequencies ---  -21.5159  -10.4578    0.1079    0.3492    0.7683   22.7306
 Low frequencies ---  280.1217 1071.9052 1097.1691
 Diagonal vibrational polarizability:
        0.0000000       0.0000000       0.0000000
 Harmonic frequencies (cm**-1), IR intensities (KM/Mole), Raman scattering
 activities (A**4/AMU), depolarization ratios for plane and unpolarized
 incident light, reduced masses (AMU), force constants (mDyne/A),
 and normal coordinates:
                      1                      2                      3
                     A"                     A'                     A'
 Frequencies --    280.1030              1071.9052              1097.1691
 Red. masses --      1.0712                 3.2885                 1.3218
 Frc consts  --      0.0495                 2.2262                 0.9375
 IR Inten    --      0.0000                 0.0000                 0.0000
  Atom  AN      X      Y      Z        X      Y      Z        X      Y      Z
     1   1     0.00   0.00   0.89    -0.27  -0.47   0.00     0.18   0.62  -0.00
     2   1     0.00   0.00   0.30    -0.06  -0.67   0.00     0.11   0.46  -0.00
     3   1     0.22  -0.03  -0.11    -0.19   0.01   0.02     0.20  -0.35  -0.04
     4   1    -0.22   0.03  -0.11    -0.19   0.01  -0.02     0.20  -0.35   0.04
     5   6    -0.00  -0.00   0.01     0.06  -0.30  -0.00    -0.07  -0.13   0.00
     6   8     0.00  -0.00  -0.06     0.00   0.29   0.00     0.01   0.07  -0.00
                      4                      5                      6
                     A"                     A'                     A'
 Frequencies --   1168.4132              1374.7803              1492.0400
 Red. masses --      1.2643                 1.2901                 1.1473
 Frc consts  --      1.0169                 1.4366                 1.5048
 IR Inten    --      0.0000                 0.0000                 0.0000
  Atom  AN      X      Y      Z        X      Y      Z        X      Y      Z
     1   1    -0.00  -0.00  -0.02     0.20   0.77   0.00     0.01   0.00   0.00
     2   1    -0.00  -0.00  -0.27    -0.00  -0.45  -0.00     0.19   0.54   0.00
     3   1     0.05   0.64  -0.19    -0.21   0.15   0.11    -0.17   0.52  -0.17
     4   1    -0.05  -0.64  -0.19    -0.21   0.15  -0.11    -0.17   0.52   0.17
     5   6     0.00  -0.00   0.14     0.13  -0.02   0.00     0.01  -0.11  -0.00
     6   8     0.00   0.00  -0.06    -0.08  -0.03  -0.00    -0.00  -0.02   0.00
                      7                      8                      9
                     A'                     A"                     A'
 Frequencies --   1519.3148              1534.3837              3017.2039
 Red. masses --      1.0391                 1.0489                 1.0358
 Frc consts  --      1.4132                 1.4550                 5.5555
 IR Inten    --      0.0000                 0.0000                 0.0000
  Atom  AN      X      Y      Z        X      Y      Z        X      Y      Z
     1   1     0.02   0.11  -0.00    -0.00  -0.00  -0.01     0.01  -0.01  -0.00
     2   1    -0.13  -0.36   0.00     0.00   0.00   0.73    -0.29   0.08   0.00
     3   1     0.47   0.24  -0.37    -0.40   0.27   0.07     0.29   0.23   0.56
     4   1     0.47   0.24   0.37     0.40  -0.27   0.07     0.29   0.23  -0.56
     5   6    -0.05  -0.01  -0.00     0.00   0.00  -0.06    -0.03  -0.04   0.00
     6   8    -0.02  -0.00   0.00     0.00   0.00  -0.01     0.00  -0.00   0.00
                     10                     11                     12
                     A"                     A'                     A'
 Frequencies --   3071.1746              3141.1780              3861.5103
 Red. masses --      1.1043                 1.0983                 1.0663
 Frc consts  --      6.1369                 6.3852                 9.3679
 IR Inten    --      0.0000                 0.0000                 0.0000
  Atom  AN      X      Y      Z        X      Y      Z        X      Y      Z
     1   1     0.00  -0.00   0.00    -0.01  -0.01  -0.00     0.94  -0.32  -0.00
     2   1    -0.00   0.00  -0.03     0.92  -0.26   0.00     0.01  -0.00   0.00
     3   1     0.33   0.25   0.57     0.07   0.07   0.17     0.00  -0.00  -0.00
     4   1    -0.33  -0.25   0.57     0.07   0.07  -0.17     0.00  -0.00   0.00
     5   6    -0.00  -0.00  -0.09    -0.09   0.01   0.00    -0.00  -0.00  -0.00
     6   8     0.00  -0.00  -0.00     0.00  -0.00  -0.00    -0.06   0.02   0.00

 -------------------
 - Thermochemistry -
 -------------------
 Temperature   298.150 Kelvin.  Pressure   1.00000 Atm.
 Atom     1 has atomic number  1 and mass   1.00783
 Atom     2 has atomic number  1 and mass   1.00783
 Atom     3 has atomic number  1 and mass   1.00783
 Atom     4 has atomic number  1 and mass   1.00783
 Atom     5 has atomic number  6 and mass  12.00000
 Atom     6 has atomic number  8 and mass  15.99491
 Molecular mass:    32.02621 amu.
 Principal axes and moments of inertia in atomic units:
                           1         2         3
     Eigenvalues --    14.04957  72.70942  75.34062
           X           -0.05427   0.99853   0.00000
           Y            0.99853   0.05427   0.00000
           Z           -0.00000   0.00000   1.00000
 This molecule is an asymmetric top.
 Rotational symmetry number  1.
 Rotational temperatures (Kelvin)      6.16488     1.19123     1.14963
 Rotational constants (GHZ):         128.45522    24.82128    23.95442
 Zero-point vibrational energy     135352.5 (Joules/Mol)
                                   32.35003 (Kcal/Mol)
 Warning -- explicit consideration of   1 degrees of freedom as
           vibrations may cause significant error
 Vibrational temperatures:    403.01  1542.23  1578.58  1681.09  1978.00
          (Kelvin)           2146.71  2185.96  2207.64  4341.08  4418.74
                             4519.45  5555.85
 
 Zero-point correction=                           0.051553 (Hartree/Particle)
 Thermal correction to Energy=                    0.054925
 Thermal correction to Enthalpy=                  0.055870
 Thermal correction to Gibbs Free Energy=         0.028753
 Sum of electronic and zero-point Energies=           -575.244444
 Sum of electronic and thermal Energies=              -575.241072
 Sum of electronic and thermal Enthalpies=            -575.240128
 Sum of electronic and thermal Free Energies=         -575.267245
 
                     E (Thermal)             CV                S
                      KCal/Mol        Cal/Mol-Kelvin    Cal/Mol-Kelvin
 Total                   34.466              8.815             57.072
 Electronic               0.000              0.000              0.000
 Translational            0.889              2.981             36.324
 Rotational               0.889              2.981             18.982
 Vibrational             32.689              2.853              1.766
 Vibration     1          0.680              1.710              1.533
                       Q            Log10(Q)             Ln(Q)
 Total Bot       0.595215D-13        -13.225326        -30.452438
 Total V=0       0.307194D+11         10.487413         24.148161
 Vib (Bot)       0.266057D-23        -23.575025        -54.283502
 Vib (Bot)    1  0.686359D+00         -0.163449         -0.376355
 Vib (V=0)       0.137314D+01          0.137714          0.317097
 Vib (V=0)    1  0.134917D+01          0.130066          0.299489
 Electronic      0.100000D+01          0.000000          0.000000
 Translational   0.712381D+07          6.852712         15.778953
 Rotational      0.314042D+04          3.496987          8.052110
 ***** Axes restored to original set *****
 -------------------------------------------------------------------
 Center     Atomic                   Forces (Hartrees/Bohr)
 Number     Number              X              Y              Z
 -------------------------------------------------------------------
      1        1          -0.000057533   -0.000000000    0.000041668
      2        1          -0.000025929   -0.000000000   -0.000097665
      3        1           0.000016125    0.000015818    0.000023618
      4        1           0.000016125   -0.000015818    0.000023618
      5        6          -0.000116746   -0.000000000    0.000257546
      6        8           0.000162003    0.000000000   -0.000253081
 -------------------------------------------------------------------
 Cartesian Forces:  Max     0.000257546 RMS     0.000102102
 Force constants in Cartesian coordinates: 
                1             2             3             4             5 
      1  0.466523D+00
      2  0.000000D+00  0.227124D-02
      3  0.168950D+00  0.000000D+00  0.123834D+00
      4  0.176311D-02  0.000000D+00  0.147039D-02  0.315792D+00
      5  0.000000D+00 -0.336761D-04  0.000000D+00  0.000000D+00  0.490695D-01
      6 -0.366178D-03  0.000000D+00 -0.770530D-02  0.893616D-01  0.000000D+00
      7  0.685331D-03 -0.133538D-02 -0.357157D-03 -0.129574D-01  0.274925D-01
      8  0.613162D-03  0.412993D-03 -0.831678D-03 -0.989280D-03  0.126302D-02
      9  0.215745D-02 -0.608606D-03  0.140870D-02 -0.404757D-02  0.906274D-02
     10  0.685331D-03  0.133538D-02 -0.357157D-03 -0.129574D-01 -0.274925D-01
     11 -0.613162D-03  0.412993D-03  0.831678D-03  0.989280D-03  0.126302D-02
     12  0.215745D-02  0.608606D-03  0.140870D-02 -0.404757D-02 -0.906274D-02
     13  0.603811D-03  0.000000D+00 -0.430553D-01 -0.298862D+00  0.000000D+00
     14  0.000000D+00 -0.124372D-02  0.000000D+00  0.000000D+00 -0.537217D-01
     15  0.845129D-02  0.000000D+00 -0.213461D-01 -0.835075D-01  0.000000D+00
     16 -0.470268D+00  0.000000D+00 -0.126654D+00  0.722549D-02  0.000000D+00
     17  0.000000D+00 -0.182322D-02  0.000000D+00  0.000000D+00  0.216709D-02
     18 -0.181341D+00  0.000000D+00 -0.975915D-01  0.765564D-03  0.000000D+00
                6             7             8             9            10 
      6  0.930109D-01
      7  0.864229D-02  0.110241D+00
      8  0.139981D-02 -0.107990D+00  0.238422D+00
      9  0.482830D-02 -0.420983D-01  0.736380D-01  0.903952D-01
     10  0.864229D-02  0.789445D-02  0.139623D-01 -0.451275D-02  0.110241D+00
     11 -0.139981D-02 -0.139623D-01 -0.219957D-01  0.714120D-02  0.107990D+00
     12  0.482830D-02 -0.451275D-02 -0.714120D-02  0.572476D-02 -0.420983D-01
     13 -0.682194D-01 -0.109902D+00  0.979872D-01  0.312345D-01 -0.109902D+00
     14  0.000000D+00  0.958944D-01 -0.225032D+00 -0.607782D-01 -0.958944D-01
     15 -0.696302D-01  0.357516D-01 -0.632711D-01 -0.713133D-01  0.357516D-01
     16 -0.380696D-01  0.404354D-02 -0.358256D-02  0.172668D-01  0.404354D-02
     17  0.000000D+00 -0.920145D-04  0.693162D-02 -0.284581D-01  0.920145D-04
     18 -0.253354D-01  0.257513D-02 -0.379591D-02 -0.310432D-01  0.257513D-02
               11            12            13            14            15 
     11  0.238422D+00
     12 -0.736380D-01  0.903952D-01
     13 -0.979872D-01  0.312345D-01  0.610848D+00
     14 -0.225032D+00  0.607782D-01  0.000000D+00  0.561414D+00
     15  0.632711D-01 -0.713133D-01  0.170156D-01  0.000000D+00  0.478992D+00
     16  0.358256D-02  0.172668D-01 -0.928059D-01  0.000000D+00 -0.134549D-01
     17  0.693162D-02  0.284581D-01  0.000000D+00 -0.563985D-01  0.000000D+00
     18  0.379591D-02 -0.310432D-01  0.317938D-01  0.000000D+00 -0.245394D+00
               16            17            18 
     16  0.547776D+00
     17  0.000000D+00  0.421988D-01
     18  0.143635D+00  0.000000D+00  0.430407D+00
 Leave Link  716 at Wed Apr 10 09:27:47 2024, MaxMem=   104857600 cpu:               0.0 elap:               0.0
 (Enter /opt/g16/l103.exe)

 GradGradGradGradGradGradGradGradGradGradGradGradGradGradGradGradGradGrad
 Berny optimization.
 Search for a local minimum.
 Step number   1 out of a maximum of    2
 All quantities printed in internal units (Hartrees-Bohrs-Radians)
 Second derivative matrix not updated -- analytic derivatives used.
 The second derivative matrix:
                          X1        Y1        Z1        X2        Y2
           X1           0.46652
           Y1           0.00000   0.00227
           Z1           0.16895   0.00000   0.12383
           X2           0.00176   0.00000   0.00147   0.31579
           Y2           0.00000  -0.00003   0.00000   0.00000   0.04907
           Z2          -0.00037  -0.00000  -0.00771   0.08936   0.00000
           X3           0.00069  -0.00134  -0.00036  -0.01296   0.02749
           Y3           0.00061   0.00041  -0.00083  -0.00099   0.00126
           Z3           0.00216  -0.00061   0.00141  -0.00405   0.00906
           X4           0.00069   0.00134  -0.00036  -0.01296  -0.02749
           Y4          -0.00061   0.00041   0.00083   0.00099   0.00126
           Z4           0.00216   0.00061   0.00141  -0.00405  -0.00906
           X5           0.00060   0.00000  -0.04306  -0.29886  -0.00000
           Y5           0.00000  -0.00124  -0.00000  -0.00000  -0.05372
           Z5           0.00845   0.00000  -0.02135  -0.08351  -0.00000
           X6          -0.47027  -0.00000  -0.12665   0.00723   0.00000
           Y6          -0.00000  -0.00182  -0.00000   0.00000   0.00217
           Z6          -0.18134  -0.00000  -0.09759   0.00077   0.00000
                          Z2        X3        Y3        Z3        X4
           Z2           0.09301
           X3           0.00864   0.11024
           Y3           0.00140  -0.10799   0.23842
           Z3           0.00483  -0.04210   0.07364   0.09040
           X4           0.00864   0.00789   0.01396  -0.00451   0.11024
           Y4          -0.00140  -0.01396  -0.02200   0.00714   0.10799
           Z4           0.00483  -0.00451  -0.00714   0.00572  -0.04210
           X5          -0.06822  -0.10990   0.09799   0.03123  -0.10990
           Y5          -0.00000   0.09589  -0.22503  -0.06078  -0.09589
           Z5          -0.06963   0.03575  -0.06327  -0.07131   0.03575
           X6          -0.03807   0.00404  -0.00358   0.01727   0.00404
           Y6          -0.00000  -0.00009   0.00693  -0.02846   0.00009
           Z6          -0.02534   0.00258  -0.00380  -0.03104   0.00258
                          Y4        Z4        X5        Y5        Z5
           Y4           0.23842
           Z4          -0.07364   0.09040
           X5          -0.09799   0.03123   0.61085
           Y5          -0.22503   0.06078   0.00000   0.56141
           Z5           0.06327  -0.07131   0.01702   0.00000   0.47899
           X6           0.00358   0.01727  -0.09281  -0.00000  -0.01345
           Y6           0.00693   0.02846  -0.00000  -0.05640  -0.00000
           Z6           0.00380  -0.03104   0.03179   0.00000  -0.24539
                          X6        Y6        Z6
           X6           0.54778
           Y6           0.00000   0.04220
           Z6           0.14363   0.00000   0.43041
 ITU=  0
     Eigenvalues ---    0.00429   0.05215   0.08960   0.09653   0.12499
     Eigenvalues ---    0.12733   0.17493   0.33927   0.65921   0.72304
     Eigenvalues ---    0.76946   0.97860
 Angle between quadratic step and forces=  41.46 degrees.
 ClnCor:  largest displacement from symmetrization is 3.98D-10 for atom     1.
 Linear search not attempted -- first point.
 ClnCor:  largest displacement from symmetrization is 7.02D-16 for atom     1.
 B after Tr=     0.000066    0.000000   -0.000004
         Rot=    1.000000   -0.000000    0.000031    0.000000 Ang=   0.00 deg.
 Variable       Old X    -DE/DX   Delta X   Delta X   Delta X     New X
                                 (Linear)    (Quad)   (Total)
    X1       -1.56865  -0.00006   0.00000   0.00000   0.00019  -1.56846
    Y1       -0.00000  -0.00000   0.00000   0.00000   0.00000   0.00000
    Z1       -1.95849   0.00004   0.00000   0.00026   0.00016  -1.95833
    X2        1.90811  -0.00003   0.00000  -0.00010  -0.00016   1.90795
    Y2        0.00000  -0.00000   0.00000  -0.00000  -0.00000   0.00000
    Z2        2.07851  -0.00010   0.00000  -0.00083  -0.00072   2.07780
    X3       -0.98334   0.00002   0.00000  -0.00001  -0.00008  -0.98342
    Y3        1.68298   0.00002   0.00000   0.00021   0.00021   1.68319
    Z3        2.09148   0.00002   0.00000   0.00034   0.00027   2.09175
    X4       -0.98334   0.00002   0.00000  -0.00001  -0.00008  -0.98342
    Y4       -1.68298  -0.00002   0.00000  -0.00021  -0.00021  -1.68319
    Z4        2.09148   0.00002   0.00000   0.00034   0.00027   2.09175
    X5       -0.02211  -0.00012   0.00000  -0.00036  -0.00038  -0.02249
    Y5        0.00000  -0.00000   0.00000  -0.00000  -0.00000  -0.00000
    Z5        1.37532   0.00026   0.00000   0.00040   0.00039   1.37572
    X6        0.12153   0.00016   0.00000   0.00036   0.00051   0.12204
    Y6        0.00000   0.00000   0.00000   0.00000   0.00000   0.00000
    Z6       -1.30561  -0.00025   0.00000  -0.00038  -0.00038  -1.30599
         Item               Value     Threshold  Converged?
 Maximum Force            0.000258     0.000450     YES
 RMS     Force            0.000102     0.000300     YES
 Maximum Displacement     0.000717     0.001800     YES
 RMS     Displacement     0.000293     0.001200     YES
 Predicted change in Energy=-2.025767D-07
 Optimization completed.
    -- Stationary point found.
 GradGradGradGradGradGradGradGradGradGradGradGradGradGradGradGradGradGrad

 Leave Link  103 at Wed Apr 10 09:27:48 2024, MaxMem=   104857600 cpu:               0.0 elap:               0.0
 (Enter /opt/g16/l9999.exe)
 Unable to Open any file for archive entry.
 1\1\GINC-DESKTOP-1D9QDE1\Freq\External='python3 -u ../pes/ch3oh_pes.py
 '\ZDO\C1H4O1\JH-LI\10-Apr-2024\0\\#p external="python3 -u ../pes/ch3oh
 _pes.py" freq geom=allcheck\\CH3OH\\0,1\H,-0.830095325,0.,-1.036387851
 5\H,1.0097295382,0.,1.099901635\H,-0.5203617817,0.890596054,1.10676452
 87\H,-0.5203617817,-0.890596054,1.1067645287\C,-0.0116990002,0.,0.7277
 903937\O,0.064311163,0.,-0.6908999282\\Version=ES64L-G16RevC.01\HF=-57
 5.2959974\RMSD=0.000e+00\RMSF=1.021e-04\ZeroPoint=0.0515531\Thermal=0.
 0549254\ETot=-575.2410719\HTot=-575.2401277\GTot=-575.2672446\Dipole=0
 .,0.,0.\PG=CS [SG(C1H2O1),X(H2)]\NImag=0\\0.46652294,0.,0.00227124,0.1
 6895039,0.,0.12383364,0.00176311,0.,0.00147039,0.31579154,0.,-0.000033
 68,0.,0.,0.04906954,-0.00036618,0.,-0.00770530,0.08936157,0.,0.0930108
 7,0.00068533,-0.00133538,-0.00035716,-0.01295737,0.02749249,0.00864229
 ,0.11024081,0.00061316,0.00041299,-0.00083168,-0.00098928,0.00126302,0
 .00139981,-0.10799029,0.23842211,0.00215745,-0.00060861,0.00140870,-0.
 00404757,0.00906274,0.00482830,-0.04209830,0.07363801,0.09039522,0.000
 68533,0.00133538,-0.00035716,-0.01295737,-0.02749249,0.00864229,0.0078
 9445,0.01396231,-0.00451275,0.11024081,-0.00061316,0.00041299,0.000831
 68,0.00098928,0.00126302,-0.00139981,-0.01396231,-0.02199573,0.0071412
 0,0.10799029,0.23842211,0.00215745,0.00060861,0.00140870,-0.00404757,-
 0.00906274,0.00482830,-0.00451275,-0.00714120,0.00572476,-0.04209830,-
 0.07363801,0.09039522,0.00060381,0.,-0.04305529,-0.29886156,0.,-0.0682
 1935,-0.10990226,0.09798719,0.03123450,-0.10990226,-0.09798719,0.03123
 450,0.61084827,0.,-0.00124372,0.,0.,-0.05372166,0.,0.09589444,-0.22503
 244,-0.06077818,-0.09589444,-0.22503244,0.06077818,0.,0.56141429,0.008
 45129,0.,-0.02134608,-0.08350749,0.,-0.06963017,0.03575163,-0.06327115
 ,-0.07131331,0.03575163,0.06327115,-0.07131331,0.01701560,0.,0.4789916
 7,-0.47026784,0.,-0.12665379,0.00722549,0.,-0.03806958,0.00404354,-0.0
 0358256,0.01726679,0.00404354,0.00358256,0.01726680,-0.09280588,0.,-0.
 01345485,0.54777556,0.,-0.00182322,0.,0.,0.00216709,0.,-0.00009201,0.0
 0693162,-0.02845812,0.00009201,0.00693162,0.02845812,0.,-0.05639853,0.
 ,0.,0.04219882,-0.18134101,0.,-0.09759149,0.00076556,0.,-0.02533536,0.
 00257513,-0.00379591,-0.03104316,0.00257513,0.00379591,-0.03104316,0.0
 3179381,0.,-0.24539441,0.14363491,0.,0.43040736\\0.00005753,0.,-0.0000
 4167,0.00002593,0.,0.00009766,-0.00001613,-0.00001582,-0.00002362,-0.0
 0001613,0.00001582,-0.00002362,0.00011675,0.,-0.00025755,-0.00016200,0
 .,0.00025308\\\@
 The archive entry for this job was punched.


 YOU ARE IN A MAZE OF TWISTY LITTLE PASSAGES.
 Job cpu time:       0 days  0 hours  0 minutes  0.4 seconds.
 Elapsed time:       0 days  0 hours  0 minutes  1.8 seconds.
 File lengths (MBytes):  RWF=      6 Int=      0 D2E=      0 Chk=      1 Scr=      1
 Normal termination of Gaussian 16 at Wed Apr 10 09:27:48 2024.
