 Entering Gaussian System, Link 0=g16
 Initial command:
 /opt/g16/l1.exe "/home/jh-li/scratch/g16/Gau-1449082.inp" -scrdir="/home/jh-li/scratch/g16/"
 Entering Link 1 = /opt/g16/l1.exe PID=   1449085.
  
 Copyright (c) 1988-2019, Gaussian, Inc.  All Rights Reserved.
  
 This is part of the Gaussian(R) 16 program.  It is based on
 the Gaussian(R) 09 system (copyright 2009, Gaussian, Inc.),
 the Gaussian(R) 03 system (copyright 2003, Gaussian, Inc.),
 the Gaussian(R) 98 system (copyright 1998, Gaussian, Inc.),
 the Gaussian(R) 94 system (copyright 1995, Gaussian, Inc.),
 the Gaussian 92(TM) system (copyright 1992, Gaussian, Inc.),
 the Gaussian 90(TM) system (copyright 1990, Gaussian, Inc.),
 the Gaussian 88(TM) system (copyright 1988, Gaussian, Inc.),
 the Gaussian 86(TM) system (copyright 1986, Carnegie Mellon
 University), and the Gaussian 82(TM) system (copyright 1983,
 Carnegie Mellon University). Gaussian is a federally registered
 trademark of Gaussian, Inc.
  
 This software contains proprietary and confidential information,
 including trade secrets, belonging to Gaussian, Inc.
  
 This software is provided under written license and may be
 used, copied, transmitted, or stored only in accord with that
 written license.
  
 The following legend is applicable only to US Government
 contracts under FAR:
  
                    RESTRICTED RIGHTS LEGEND
  
 Use, reproduction and disclosure by the US Government is
 subject to restrictions as set forth in subparagraphs (a)
 and (c) of the Commercial Computer Software - Restricted
 Rights clause in FAR 52.227-19.
  
 Gaussian, Inc.
 340 Quinnipiac St., Bldg. 40, Wallingford CT 06492
  
  
 ---------------------------------------------------------------
 Warning -- This program may not be used in any manner that
 competes with the business of Gaussian, Inc. or will provide
 assistance to any competitor of Gaussian, Inc.  The licensee
 of this program is prohibited from giving any competitor of
 Gaussian, Inc. access to this program.  By using this program,
 the user acknowledges that Gaussian, Inc. is engaged in the
 business of creating and licensing software in the field of
 computational chemistry and represents and warrants to the
 licensee that it is not a competitor of Gaussian, Inc. and that
 it will not use this program in any manner prohibited above.
 ---------------------------------------------------------------
  

 Cite this work as:
 Gaussian 16, Revision C.01,
 M. J. Frisch, G. W. Trucks, H. B. Schlegel, G. E. Scuseria, 
 M. A. Robb, J. R. Cheeseman, G. Scalmani, V. Barone, 
 G. A. Petersson, H. Nakatsuji, X. Li, M. Caricato, A. V. Marenich, 
 J. Bloino, B. G. Janesko, R. Gomperts, B. Mennucci, H. P. Hratchian, 
 J. V. Ortiz, A. F. Izmaylov, J. L. Sonnenberg, D. Williams-Young, 
 F. Ding, F. Lipparini, F. Egidi, J. Goings, B. Peng, A. Petrone, 
 T. Henderson, D. Ranasinghe, V. G. Zakrzewski, J. Gao, N. Rega, 
 G. Zheng, W. Liang, M. Hada, M. Ehara, K. Toyota, R. Fukuda, 
 J. Hasegawa, M. Ishida, T. Nakajima, Y. Honda, O. Kitao, H. Nakai, 
 T. Vreven, K. Throssell, J. A. Montgomery, Jr., J. E. Peralta, 
 F. Ogliaro, M. J. Bearpark, J. J. Heyd, E. N. Brothers, K. N. Kudin, 
 V. N. Staroverov, T. A. Keith, R. Kobayashi, J. Normand, 
 K. Raghavachari, A. P. Rendell, J. C. Burant, S. S. Iyengar, 
 J. Tomasi, M. Cossi, J. M. Millam, M. Klene, C. Adamo, R. Cammi, 
 J. W. Ochterski, R. L. Martin, K. Morokuma, O. Farkas, 
 J. B. Foresman, and D. J. Fox, Gaussian, Inc., Wallingford CT, 2019.
 
 ******************************************
 Gaussian 16:  ES64L-G16RevC.01  3-Jul-2019
                10-Apr-2024 
 ******************************************
 %nproc=1
 Will use up to    1 processors via shared memory.
 %chk=CH3O-opt-freq.chk
 -------------------------------------------------------
 #p external="python3 -u ../pes/h3co_pes.py" opt=nomicro
 -------------------------------------------------------
 1/18=20,19=15,26=1,38=1/1,3;
 2/9=110,12=2,17=6,18=5,40=1/2;
 3/11=9,25=1,30=1,41=9900000,43=2,71=1/1;
 4/20=17,22=1,24=3,113=1,114=1/2;
 6/7=2,8=2,9=2,10=2/1;
 7/44=-1/16;
 1/18=20,19=15,26=1/3(2);
 2/9=110/2;
 99//99;
 2/9=110/2;
 3/11=9,25=1,30=1,41=9900000,43=2,71=1/1;
 4/16=2,20=17,22=1,24=3,113=1,114=1/2;
 7/44=-1/16;
 1/18=20,19=15,26=1/3(-4);
 2/9=110/2;
 6/7=2,8=2,9=2,10=2/1;
 99/9=10/99;
 Leave Link    1 at Wed Apr 10 09:21:34 2024, MaxMem=           0 cpu:               0.0 elap:               0.0
 (Enter /opt/g16/l101.exe)
 ----
 CH3O
 ----
 Symbolic Z-matrix:
 Charge =  0 Multiplicity = 2
 H                     0.00018   1.05751   0.95876 
 H                    -0.9062   -0.45491   1.09146 
 H                     0.90606  -0.45519   1.09145 
 C                    0.        -0.00758   0.67049 
 O                    0.        -0.00359  -0.70127 
 
 ITRead=  0  0  0  0  0
 MicOpt= -1 -1 -1 -1 -1
 NAtoms=      5 NQM=        5 NQMF=       0 NMMI=      0 NMMIF=      0
                NMic=       0 NMicF=      0.
                    Isotopes and Nuclear Properties:
 (Nuclear quadrupole moments (NQMom) in fm**2, nuclear magnetic moments (NMagM)
  in nuclear magnetons)

  Atom         1           2           3           4           5
 IAtWgt=           1           1           1          12          16
 AtmWgt=   1.0078250   1.0078250   1.0078250  12.0000000  15.9949146
 NucSpn=           1           1           1           0           0
 AtZEff=  -0.0000000  -0.0000000  -0.0000000  -0.0000000  -0.0000000
 NQMom=    0.0000000   0.0000000   0.0000000   0.0000000   0.0000000
 NMagM=    2.7928460   2.7928460   2.7928460   0.0000000   0.0000000
 AtZNuc=   1.0000000   1.0000000   1.0000000   6.0000000   8.0000000
 Leave Link  101 at Wed Apr 10 09:21:34 2024, MaxMem=   104857600 cpu:               0.2 elap:               0.1
 (Enter /opt/g16/l103.exe)

 GradGradGradGradGradGradGradGradGradGradGradGradGradGradGradGradGradGrad
 Berny optimization.
 Initialization pass.
                           ----------------------------
                           !    Initial Parameters    !
                           ! (Angstroms and Degrees)  !
 --------------------------                            --------------------------
 ! Name  Definition              Value          Derivative Info.                !
 --------------------------------------------------------------------------------
 ! R1    R(1,4)                  1.1034         estimate D2E/DX2                !
 ! R2    R(2,4)                  1.0948         estimate D2E/DX2                !
 ! R3    R(3,4)                  1.0948         estimate D2E/DX2                !
 ! R4    R(4,5)                  1.3718         estimate D2E/DX2                !
 ! A1    A(1,4,2)              107.1035         estimate D2E/DX2                !
 ! A2    A(1,4,3)              107.1019         estimate D2E/DX2                !
 ! A3    A(1,4,5)              104.9777         estimate D2E/DX2                !
 ! A4    A(2,4,3)              111.725          estimate D2E/DX2                !
 ! A5    A(2,4,5)              112.6882         estimate D2E/DX2                !
 ! A6    A(3,4,5)              112.6874         estimate D2E/DX2                !
 ! D1    D(1,4,3,2)            116.9894         estimate D2E/DX2                !
 ! D2    D(1,4,5,2)           -116.2202         estimate D2E/DX2                !
 ! D3    D(1,4,5,3)            116.2179         estimate D2E/DX2                !
 ! D4    D(2,4,5,3)           -127.5619         estimate D2E/DX2                !
 --------------------------------------------------------------------------------
 Trust Radius=3.00D-01 FncErr=1.00D-07 GrdErr=1.00D-07 EigMax=2.50D+02 EigMin=1.00D-04
 Number of steps in this run=     24 maximum allowed number of steps=    100.
 GradGradGradGradGradGradGradGradGradGradGradGradGradGradGradGradGradGrad

 Leave Link  103 at Wed Apr 10 09:21:34 2024, MaxMem=   104857600 cpu:               0.0 elap:               0.0
 (Enter /opt/g16/l202.exe)
                          Input orientation:                          
 ---------------------------------------------------------------------
 Center     Atomic      Atomic             Coordinates (Angstroms)
 Number     Number       Type             X           Y           Z
 ---------------------------------------------------------------------
      1          1           0        0.000179    1.057513    0.958757
      2          1           0       -0.906198   -0.454914    1.091460
      3          1           0        0.906063   -0.455192    1.091448
      4          6           0       -0.000003   -0.007581    0.670491
      5          8           0       -0.000001   -0.003595   -0.701268
 ---------------------------------------------------------------------
                    Distance matrix (angstroms):
                    1          2          3          4          5
     1  H    0.000000
     2  H    1.768210   0.000000
     3  H    1.768193   1.812262   0.000000
     4  C    1.103414   1.094766   1.094767   0.000000
     5  O    1.970186   2.058825   2.058816   1.371765   0.000000
 Stoichiometry    CH3O(2)
 Framework group  C1[X(CH3O)]
 Deg. of freedom     9
 Full point group                 C1      NOp   1
 Largest Abelian subgroup         C1      NOp   1
 Largest concise Abelian subgroup C1      NOp   1
                         Standard orientation:                         
 ---------------------------------------------------------------------
 Center     Atomic      Atomic             Coordinates (Angstroms)
 Number     Number       Type             X           Y           Z
 ---------------------------------------------------------------------
      1          1           0       -0.867769   -0.000175    1.052838
      2          1           0       -0.999824    0.906199   -0.459648
      3          1           0       -0.999812   -0.906062   -0.459922
      4          6           0       -0.579046    0.000004   -0.012133
      5          8           0        0.792711    0.000002   -0.007559
 ---------------------------------------------------------------------
 Rotational constants (GHZ):         157.9129640          27.8697758          27.7022996
 Leave Link  202 at Wed Apr 10 09:21:34 2024, MaxMem=   104857600 cpu:               0.0 elap:               0.0
 (Enter /opt/g16/l301.exe)
 Standard basis: STO-3G (5D, 7F)
 Ernie: Thresh=  0.10000D-02 Tol=  0.10000D-05 Strict=F.
 There are    13 symmetry adapted cartesian basis functions of A   symmetry.
 There are    13 symmetry adapted basis functions of A   symmetry.
    13 basis functions,    39 primitive gaussians,    13 cartesian basis functions
     9 alpha electrons        8 beta electrons
       nuclear repulsion energy        34.3463490052 Hartrees.
 IExCor=    0 DFT=F Ex=HF Corr=None ExCW=0 ScaHFX=  1.000000
 ScaDFX=  1.000000  1.000000  1.000000  1.000000 ScalE2=  1.000000  1.000000
 IRadAn=      5 IRanWt=     -1 IRanGd=            0 ICorTp=0 IEmpDi=  4
 NAtoms=    5 NActive=    5 NUniq=    5 SFac= 1.00D+00 NAtFMM=   60 NAOKFM=F Big=F
 Integral buffers will be    131072 words long.
 Raffenetti 2 integral format.
 Two-electron integral symmetry is turned on.
 Leave Link  301 at Wed Apr 10 09:21:34 2024, MaxMem=   104857600 cpu:               0.0 elap:               0.0
 (Enter /opt/g16/l402.exe)
 External calculation of energy and first derivatives.
 Running external command "python3 -u ../pes/h3co_pes.py R"
         input file       "/home/jh-li/scratch/g16/Gau-1449085.EIn"
         output file      "/home/jh-li/scratch/g16/Gau-1449085.EOu"
         message file     "/home/jh-li/scratch/g16/Gau-1449085.EMs"
         fchk file        "/home/jh-li/scratch/g16/Gau-1449085.EFC"
         mat. el file     "/home/jh-li/scratch/g16/Gau-1449085.EUF"
 Recovered energy= -575.286498346     dipole=      0.000000000000      0.000000000000      0.000000000000
 Energy=    -575.286498     NIter=   0.
 Dipole moment=       0.000000       0.000000       0.000000
 Leave Link  402 at Wed Apr 10 09:21:34 2024, MaxMem=   104857600 cpu:               0.0 elap:               0.2
 (Enter /opt/g16/l601.exe)
 Leave Link  601 at Wed Apr 10 09:21:34 2024, MaxMem=   104857600 cpu:               0.0 elap:               0.0
 (Enter /opt/g16/l716.exe)
 Dipole        = 0.00000000D+00 0.00000000D+00 0.00000000D+00
 ***** Axes restored to original set *****
 -------------------------------------------------------------------
 Center     Atomic                   Forces (Hartrees/Bohr)
 Number     Number              X              Y              Z
 -------------------------------------------------------------------
      1        1          -0.000000898   -0.000142029    0.002336910
      2        1          -0.000219077   -0.001663820   -0.000871162
      3        1           0.000218304   -0.001664759   -0.000871167
      4        6           0.000002495    0.006931431   -0.002780807
      5        8          -0.000000816   -0.003454744    0.002154745
 -------------------------------------------------------------------
 Cartesian Forces:  Max     0.006931431 RMS     0.002380341
 Leave Link  716 at Wed Apr 10 09:21:34 2024, MaxMem=   104857600 cpu:               0.0 elap:               0.0
 (Enter /opt/g16/l103.exe)

 GradGradGradGradGradGradGradGradGradGradGradGradGradGradGradGradGradGrad
 Berny optimization.
 FormGI is forming the generalized inverse of G from B-inverse, IUseBI=4.
 Internal  Forces:  Max     0.004392239 RMS     0.001752118
 Search for a local minimum.
 Step number   1 out of a maximum of   24
 All quantities printed in internal units (Hartrees-Bohrs-Radians)
 RMS Force = .17521D-02 SwitMx=.10000D-02 MixMth= 1
 Mixed Optimization -- RFO/linear search
 Second derivative matrix not updated -- first step.
 The second derivative matrix:
                          R1        R2        R3        R4        A1
           R1           0.33307
           R2           0.00000   0.34268
           R3           0.00000   0.00000   0.34267
           R4           0.00000   0.00000   0.00000   0.50639
           A1           0.00000   0.00000   0.00000   0.00000   0.16000
           A2           0.00000   0.00000   0.00000   0.00000   0.00000
           A3           0.00000   0.00000   0.00000   0.00000   0.00000
           A4           0.00000   0.00000   0.00000   0.00000   0.00000
           A5           0.00000   0.00000   0.00000   0.00000   0.00000
           A6           0.00000   0.00000   0.00000   0.00000   0.00000
           D1           0.00000   0.00000   0.00000   0.00000   0.00000
           D2           0.00000   0.00000   0.00000   0.00000   0.00000
           D3           0.00000   0.00000   0.00000   0.00000   0.00000
           D4           0.00000   0.00000   0.00000   0.00000   0.00000
                          A2        A3        A4        A5        A6
           A2           0.16000
           A3           0.00000   0.16000
           A4           0.00000   0.00000   0.16000
           A5           0.00000   0.00000   0.00000   0.16000
           A6           0.00000   0.00000   0.00000   0.00000   0.16000
           D1           0.00000   0.00000   0.00000   0.00000   0.00000
           D2           0.00000   0.00000   0.00000   0.00000   0.00000
           D3           0.00000   0.00000   0.00000   0.00000   0.00000
           D4           0.00000   0.00000   0.00000   0.00000   0.00000
                          D1        D2        D3        D4
           D1           0.00230
           D2           0.00000   0.02065
           D3           0.00000   0.00000   0.02065
           D4           0.00000   0.00000   0.00000   0.02065
 ITU=  0
     Eigenvalues ---    0.05534   0.06818   0.09540   0.16000   0.16000
     Eigenvalues ---    0.33307   0.34267   0.34268   0.50639
 RFO step:  Lambda=-3.62276573D-04 EMin= 5.53412371D-02
 Linear search not attempted -- first point.
 Iteration  1 RMS(Cart)=  0.01467870 RMS(Int)=  0.00031573
 Iteration  2 RMS(Cart)=  0.00018564 RMS(Int)=  0.00021517
 Iteration  3 RMS(Cart)=  0.00000004 RMS(Int)=  0.00021517
 ITry= 1 IFail=0 DXMaxC= 3.13D-02 DCOld= 1.00D+10 DXMaxT= 3.00D-01 DXLimC= 3.00D+00 Rises=F
 Variable       Old X    -DE/DX   Delta X   Delta X   Delta X     New X
                                 (Linear)    (Quad)   (Total)
    R1        2.08515   0.00047   0.00000   0.00142   0.00142   2.08657
    R2        2.06881   0.00053   0.00000   0.00154   0.00154   2.07035
    R3        2.06881   0.00053   0.00000   0.00154   0.00154   2.07035
    R4        2.59226  -0.00217   0.00000  -0.00428  -0.00428   2.58798
    A1        1.86931  -0.00030   0.00000   0.00519   0.00533   1.87464
    A2        1.86928  -0.00033   0.00000   0.00525   0.00537   1.87465
    A3        1.83221   0.00439   0.00000   0.03527   0.03534   1.86755
    A4        1.94997   0.00084   0.00000  -0.00671  -0.00723   1.94274
    A5        1.96678  -0.00209   0.00000  -0.01678  -0.01708   1.94970
    A6        1.96677  -0.00208   0.00000  -0.01678  -0.01707   1.94970
    D1        2.04185  -0.00011   0.00000   0.00576   0.00569   2.04754
    D2       -2.02843  -0.00121   0.00000  -0.01883  -0.01867  -2.04710
    D3        2.02839   0.00118   0.00000   0.01890   0.01873   2.04711
    D4       -2.22637   0.00239   0.00000   0.03772   0.03740  -2.18897
         Item               Value     Threshold  Converged?
 Maximum Force            0.004392     0.000450     NO 
 RMS     Force            0.001752     0.000300     NO 
 Maximum Displacement     0.031346     0.001800     NO 
 RMS     Displacement     0.014695     0.001200     NO 
 Predicted change in Energy=-1.793226D-04
 GradGradGradGradGradGradGradGradGradGradGradGradGradGradGradGradGradGrad

 Leave Link  103 at Wed Apr 10 09:21:34 2024, MaxMem=   104857600 cpu:               0.0 elap:               0.0
 (Enter /opt/g16/l202.exe)
                          Input orientation:                          
 ---------------------------------------------------------------------
 Center     Atomic      Atomic             Coordinates (Angstroms)
 Number     Number       Type             X           Y           Z
 ---------------------------------------------------------------------
      1          1           0        0.000170    1.064911    0.974333
      2          1           0       -0.904643   -0.455887    1.083113
      3          1           0        0.904513   -0.456179    1.083101
      4          6           0        0.000005    0.003567    0.669816
      5          8           0       -0.000004   -0.020183   -0.699476
 ---------------------------------------------------------------------
                    Distance matrix (angstroms):
                    1          2          3          4          5
     1  H    0.000000
     2  H    1.772948   0.000000
     3  H    1.772958   1.809156   0.000000
     4  C    1.104166   1.095582   1.095584   0.000000
     5  O    1.994759   2.045931   2.045928   1.369498   0.000000
 Stoichiometry    CH3O(2)
 Framework group  C1[X(CH3O)]
 Deg. of freedom     9
 Full point group                 C1      NOp   1
 RotChk:  IX=3 Diff= 2.97D-02
 Largest Abelian subgroup         C1      NOp   1
 Largest concise Abelian subgroup C1      NOp   1
                         Standard orientation:                         
 ---------------------------------------------------------------------
 Center     Atomic      Atomic             Coordinates (Angstroms)
 Number     Number       Type             X           Y           Z
 ---------------------------------------------------------------------
      1          1           0       -0.904940    0.000125    1.045020
      2          1           0       -0.981123    0.904521   -0.478007
      3          1           0       -0.981116   -0.904635   -0.477801
      4          6           0       -0.577765   -0.000002   -0.009560
      5          8           0        0.791721    0.000000   -0.003982
 ---------------------------------------------------------------------
 Rotational constants (GHZ):         157.3712325          27.9227064          27.7887064
 Leave Link  202 at Wed Apr 10 09:21:35 2024, MaxMem=   104857600 cpu:               0.0 elap:               0.0
 (Enter /opt/g16/l301.exe)
 Standard basis: STO-3G (5D, 7F)
 Ernie: Thresh=  0.10000D-02 Tol=  0.10000D-05 Strict=F.
 There are    13 symmetry adapted cartesian basis functions of A   symmetry.
 There are    13 symmetry adapted basis functions of A   symmetry.
    13 basis functions,    39 primitive gaussians,    13 cartesian basis functions
     9 alpha electrons        8 beta electrons
       nuclear repulsion energy        34.3690573864 Hartrees.
 IExCor=    0 DFT=F Ex=HF Corr=None ExCW=0 ScaHFX=  1.000000
 ScaDFX=  1.000000  1.000000  1.000000  1.000000 ScalE2=  1.000000  1.000000
 IRadAn=      5 IRanWt=     -1 IRanGd=            0 ICorTp=0 IEmpDi=  4
 NAtoms=    5 NActive=    5 NUniq=    5 SFac= 1.00D+00 NAtFMM=   60 NAOKFM=F Big=F
 Integral buffers will be    131072 words long.
 Raffenetti 2 integral format.
 Two-electron integral symmetry is turned on.
 Leave Link  301 at Wed Apr 10 09:21:35 2024, MaxMem=   104857600 cpu:               0.1 elap:               0.0
 (Enter /opt/g16/l402.exe)
 External calculation of energy and first derivatives.
 Running external command "python3 -u ../pes/h3co_pes.py R"
         input file       "/home/jh-li/scratch/g16/Gau-1449085.EIn"
         output file      "/home/jh-li/scratch/g16/Gau-1449085.EOu"
         message file     "/home/jh-li/scratch/g16/Gau-1449085.EMs"
         fchk file        "/home/jh-li/scratch/g16/Gau-1449085.EFC"
         mat. el file     "/home/jh-li/scratch/g16/Gau-1449085.EUF"
 Recovered energy= -575.286782927     dipole=      0.000000000000      0.000000000000      0.000000000000
 Energy=    -575.286783     NIter=   0.
 Dipole moment=       0.000000       0.000000       0.000000
 Leave Link  402 at Wed Apr 10 09:21:35 2024, MaxMem=   104857600 cpu:               0.0 elap:               0.2
 (Enter /opt/g16/l716.exe)
 Dipole        = 0.00000000D+00 0.00000000D+00 0.00000000D+00
 ***** Axes restored to original set *****
 -------------------------------------------------------------------
 Center     Atomic                   Forces (Hartrees/Bohr)
 Number     Number              X              Y              Z
 -------------------------------------------------------------------
      1        1           0.000000420   -0.001355043    0.000812370
      2        1           0.000171486   -0.001560677    0.000065671
      3        1          -0.000172811   -0.001559459    0.000065976
      4        6           0.000001503    0.006310722   -0.001462570
      5        8          -0.000000602   -0.001834203    0.000486084
 -------------------------------------------------------------------
 Cartesian Forces:  Max     0.006310722 RMS     0.001879655
 Leave Link  716 at Wed Apr 10 09:21:35 2024, MaxMem=   104857600 cpu:               0.0 elap:               0.0
 (Enter /opt/g16/l103.exe)

 GradGradGradGradGradGradGradGradGradGradGradGradGradGradGradGradGradGrad
 Berny optimization.
 Using GEDIIS/GDIIS optimizer.
 FormGI is forming the generalized inverse of G from B-inverse, IUseBI=4.
 Internal  Forces:  Max     0.002188655 RMS     0.000954238
 Search for a local minimum.
 Step number   2 out of a maximum of   24
 All quantities printed in internal units (Hartrees-Bohrs-Radians)
 RMS Force = .95424D-03 SwitMx=.10000D-02 MixMth= 2
 Mixed Optimization -- En-DIIS/RFO-DIIS
 Update second derivatives using D2CorX and points    1    2
 DE= -2.85D-04 DEPred=-1.79D-04 R= 1.59D+00
 TightC=F SS=  1.41D+00  RLast= 6.40D-02 DXNew= 5.0454D-01 1.9203D-01
 Trust test= 1.59D+00 RLast= 6.40D-02 DXMaxT set to 3.00D-01
 The second derivative matrix:
                          R1        R2        R3        R4        A1
           R1           0.34778
           R2          -0.00079   0.34191
           R3          -0.00078  -0.00076   0.34191
           R4          -0.01409   0.00326   0.00324   0.51215
           A1          -0.00422  -0.00121  -0.00121   0.00850   0.15864
           A2          -0.00381  -0.00122  -0.00123   0.00808  -0.00146
           A3           0.01445  -0.00833  -0.00832   0.00954  -0.01762
           A4           0.01380   0.00158   0.00159  -0.02043   0.00020
           A5          -0.00927   0.00404   0.00403  -0.00208   0.00898
           A6          -0.00950   0.00404   0.00403  -0.00183   0.00902
           D1           0.00135  -0.00003  -0.00003  -0.00143  -0.00031
           D2          -0.00251   0.00058   0.00058   0.00103   0.00151
           D3           0.00289  -0.00058  -0.00058  -0.00144  -0.00159
           D4           0.00540  -0.00116  -0.00116  -0.00247  -0.00310
                          A2        A3        A4        A5        A6
           A2           0.15846
           A3          -0.01713   0.10348
           A4           0.00055   0.03537   0.16622
           A5           0.00868   0.02406  -0.01893   0.15029
           A6           0.00872   0.02372  -0.01910  -0.00951   0.15069
           D1          -0.00027   0.00175   0.00114  -0.00105  -0.00107
           D2           0.00144   0.00169  -0.00364  -0.00036  -0.00032
           D3          -0.00151  -0.00117   0.00394   0.00006   0.00001
           D4          -0.00294  -0.00285   0.00758   0.00042   0.00033
                          D1        D2        D3        D4
           D1           0.00242
           D2          -0.00026   0.02084
           D3           0.00029  -0.00026   0.02099
           D4           0.00055  -0.00044   0.00060   0.02169
 ITU=  1  0
 Use linear search instead of GDIIS.
     Eigenvalues ---    0.02628   0.06239   0.08895   0.15744   0.16146
     Eigenvalues ---    0.34122   0.34268   0.35001   0.51393
 RFO step:  Lambda=-9.23350450D-05 EMin= 2.62814393D-02
 Quartic linear search produced a step of  1.20959.
 Iteration  1 RMS(Cart)=  0.02015257 RMS(Int)=  0.00091023
 Iteration  2 RMS(Cart)=  0.00049448 RMS(Int)=  0.00073260
 Iteration  3 RMS(Cart)=  0.00000016 RMS(Int)=  0.00073260
 ITry= 1 IFail=0 DXMaxC= 3.99D-02 DCOld= 1.00D+10 DXMaxT= 3.00D-01 DXLimC= 3.00D+00 Rises=F
 Variable       Old X    -DE/DX   Delta X   Delta X   Delta X     New X
                                 (Linear)    (Quad)   (Total)
    R1        2.08657  -0.00108   0.00172  -0.00847  -0.00675   2.07982
    R2        2.07035   0.00054   0.00187   0.00201   0.00388   2.07423
    R3        2.07035   0.00054   0.00187   0.00201   0.00387   2.07423
    R4        2.58798  -0.00046  -0.00518   0.00203  -0.00315   2.58483
    A1        1.87464   0.00001   0.00645   0.00454   0.01141   1.88605
    A2        1.87465  -0.00006   0.00650   0.00455   0.01132   1.88598
    A3        1.86755   0.00219   0.04275   0.00937   0.05201   1.91956
    A4        1.94274  -0.00041  -0.00875  -0.01816  -0.02862   1.91411
    A5        1.94970  -0.00080  -0.02066   0.00064  -0.02118   1.92852
    A6        1.94970  -0.00076  -0.02065   0.00066  -0.02106   1.92863
    D1        2.04754  -0.00025   0.00688  -0.00185   0.00451   2.05205
    D2       -2.04710  -0.00090  -0.02259  -0.01151  -0.03366  -2.08076
    D3        2.04711   0.00084   0.02265   0.01154   0.03362   2.08074
    D4       -2.18897   0.00174   0.04524   0.02305   0.06729  -2.12169
         Item               Value     Threshold  Converged?
 Maximum Force            0.002189     0.000450     NO 
 RMS     Force            0.000954     0.000300     NO 
 Maximum Displacement     0.039912     0.001800     NO 
 RMS     Displacement     0.020126     0.001200     NO 
 Predicted change in Energy=-1.836633D-04
 GradGradGradGradGradGradGradGradGradGradGradGradGradGradGradGradGradGrad

 Leave Link  103 at Wed Apr 10 09:21:35 2024, MaxMem=   104857600 cpu:               0.0 elap:               0.0
 (Enter /opt/g16/l202.exe)
                          Input orientation:                          
 ---------------------------------------------------------------------
 Center     Atomic      Atomic             Coordinates (Angstroms)
 Number     Number       Type             X           Y           Z
 ---------------------------------------------------------------------
      1          1           0        0.000201    1.074165    0.993890
      2          1           0       -0.897383   -0.459808    1.074622
      3          1           0        0.897250   -0.460060    1.074672
      4          6           0        0.000014    0.023236    0.667005
      5          8           0       -0.000041   -0.041303   -0.699303
 ---------------------------------------------------------------------
                    Distance matrix (angstroms):
                    1          2          3          4          5
     1  H    0.000000
     2  H    1.779114   0.000000
     3  H    1.779063   1.794634   0.000000
     4  C    1.100593   1.097636   1.097634   0.000000
     5  O    2.027602   2.031545   2.031619   1.367831   0.000000
 Stoichiometry    CH3O(2)
 Framework group  C1[X(CH3O)]
 Deg. of freedom     9
 Full point group                 C1      NOp   1
 RotChk:  IX=0 Diff= 4.01D-02
 Largest Abelian subgroup         C1      NOp   1
 Largest concise Abelian subgroup C1      NOp   1
                         Standard orientation:                         
 ---------------------------------------------------------------------
 Center     Atomic      Atomic             Coordinates (Angstroms)
 Number     Number       Type             X           Y           Z
 ---------------------------------------------------------------------
      1          1           0       -0.955072   -0.001470    1.030105
      2          1           0       -0.959380    0.898061   -0.504845
      3          1           0       -0.959507   -0.896570   -0.507374
      4          6           0       -0.576333    0.000009   -0.003267
      5          8           0        0.791494   -0.000009    0.000215
 ---------------------------------------------------------------------
 Rotational constants (GHZ):         157.4984815          27.9132258          27.8561065
 Leave Link  202 at Wed Apr 10 09:21:35 2024, MaxMem=   104857600 cpu:               0.0 elap:               0.0
 (Enter /opt/g16/l301.exe)
 Standard basis: STO-3G (5D, 7F)
 Ernie: Thresh=  0.10000D-02 Tol=  0.10000D-05 Strict=F.
 There are    13 symmetry adapted cartesian basis functions of A   symmetry.
 There are    13 symmetry adapted basis functions of A   symmetry.
    13 basis functions,    39 primitive gaussians,    13 cartesian basis functions
     9 alpha electrons        8 beta electrons
       nuclear repulsion energy        34.3853121035 Hartrees.
 IExCor=    0 DFT=F Ex=HF Corr=None ExCW=0 ScaHFX=  1.000000
 ScaDFX=  1.000000  1.000000  1.000000  1.000000 ScalE2=  1.000000  1.000000
 IRadAn=      5 IRanWt=     -1 IRanGd=            0 ICorTp=0 IEmpDi=  4
 NAtoms=    5 NActive=    5 NUniq=    5 SFac= 1.00D+00 NAtFMM=   60 NAOKFM=F Big=F
 Integral buffers will be    131072 words long.
 Raffenetti 2 integral format.
 Two-electron integral symmetry is turned on.
 Leave Link  301 at Wed Apr 10 09:21:35 2024, MaxMem=   104857600 cpu:               0.0 elap:               0.0
 (Enter /opt/g16/l402.exe)
 External calculation of energy and first derivatives.
 Running external command "python3 -u ../pes/h3co_pes.py R"
         input file       "/home/jh-li/scratch/g16/Gau-1449085.EIn"
         output file      "/home/jh-li/scratch/g16/Gau-1449085.EOu"
         message file     "/home/jh-li/scratch/g16/Gau-1449085.EMs"
         fchk file        "/home/jh-li/scratch/g16/Gau-1449085.EFC"
         mat. el file     "/home/jh-li/scratch/g16/Gau-1449085.EUF"
 Recovered energy= -575.286987015     dipole=      0.000000000000      0.000000000000      0.000000000000
 Energy=    -575.286987     NIter=   0.
 Dipole moment=       0.000000       0.000000       0.000000
 Leave Link  402 at Wed Apr 10 09:21:35 2024, MaxMem=   104857600 cpu:               0.0 elap:               0.2
 (Enter /opt/g16/l716.exe)
 Dipole        = 0.00000000D+00 0.00000000D+00 0.00000000D+00
 ***** Axes restored to original set *****
 -------------------------------------------------------------------
 Center     Atomic                   Forces (Hartrees/Bohr)
 Number     Number              X              Y              Z
 -------------------------------------------------------------------
      1        1          -0.000004907   -0.000553519   -0.000641752
      2        1           0.000371313   -0.000849158    0.000371891
      3        1          -0.000370850   -0.000855390    0.000363785
      4        6           0.000000024    0.002173203    0.000341017
      5        8           0.000004456    0.000077594   -0.000467949
 -------------------------------------------------------------------
 Cartesian Forces:  Max     0.002173203 RMS     0.000720240
 Leave Link  716 at Wed Apr 10 09:21:35 2024, MaxMem=   104857600 cpu:               0.0 elap:               0.0
 (Enter /opt/g16/l103.exe)

 GradGradGradGradGradGradGradGradGradGradGradGradGradGradGradGradGradGrad
 Berny optimization.
 Using GEDIIS/GDIIS optimizer.
 FormGI is forming the generalized inverse of G from B-inverse, IUseBI=4.
 Internal  Forces:  Max     0.000838650 RMS     0.000442721
 Search for a local minimum.
 Step number   3 out of a maximum of   24
 All quantities printed in internal units (Hartrees-Bohrs-Radians)
 RMS Force = .44272D-03 SwitMx=.10000D-02 MixMth= 2
 Mixed Optimization -- En-DIIS/RFO-DIIS
 Swapping is turned off.
 Update second derivatives using D2CorX and points    1    2    3
 DE= -2.04D-04 DEPred=-1.84D-04 R= 1.11D+00
 TightC=F SS=  1.41D+00  RLast= 1.08D-01 DXNew= 5.0454D-01 3.2272D-01
 Trust test= 1.11D+00 RLast= 1.08D-01 DXMaxT set to 3.23D-01
 The second derivative matrix:
                          R1        R2        R3        R4        A1
           R1           0.34811
           R2          -0.00009   0.34155
           R3          -0.00008  -0.00112   0.34155
           R4          -0.01711   0.00336   0.00335   0.51673
           A1          -0.00486  -0.00156  -0.00156   0.01075   0.15931
           A2          -0.00457  -0.00168  -0.00169   0.01092  -0.00064
           A3           0.02146  -0.00963  -0.00962   0.00267  -0.02226
           A4           0.01497   0.00322   0.00322  -0.02806  -0.00156
           A5          -0.01250   0.00441   0.00440   0.00190   0.01124
           A6          -0.01265   0.00447   0.00447   0.00180   0.01119
           D1           0.00103  -0.00048  -0.00048   0.00066   0.00017
           D2          -0.00392   0.00073   0.00073   0.00278   0.00250
           D3           0.00421  -0.00086  -0.00086  -0.00262  -0.00245
           D4           0.00813  -0.00160  -0.00159  -0.00540  -0.00494
                          A2        A3        A4        A5        A6
           A2           0.15945
           A3          -0.02306   0.11016
           A4          -0.00154   0.05256   0.16986
           A5           0.01155   0.01897  -0.02695   0.15354
           A6           0.01148   0.01939  -0.02691  -0.00663   0.15322
           D1           0.00029  -0.00298   0.00016   0.00115   0.00108
           D2           0.00269  -0.00057  -0.00713   0.00107   0.00095
           D3          -0.00260  -0.00020   0.00716  -0.00077  -0.00068
           D4          -0.00529   0.00037   0.01429  -0.00184  -0.00164
                          D1        D2        D3        D4
           D1           0.00269
           D2           0.00070   0.02147
           D3          -0.00060  -0.00063   0.02112
           D4          -0.00130  -0.00144   0.00109   0.02319
 ITU=  1  1  0
     Eigenvalues ---    0.02188   0.06101   0.08965   0.15998   0.17805
     Eigenvalues ---    0.34097   0.34268   0.35199   0.51987
 En-DIIS/RFO-DIIS/Sim-DIIS IScMMF=       -3 using points:     3    2
 RFO step:  Lambda=-2.97005930D-05.
 NNeg= 0 NGDIIS= 2 SimSw=  2.50D-03 Rises=F DC= -2.04D-04 SmlDif=  1.00D-05
 NRisDI= 0 DoIntr=F SqrtH=F CThrHd= 10.0 CDAdj=  3.0
 RMS Error=  0.8330836563D-02 NUsed= 2 OKEnD=T EnDIS=F
 InvSVX:  RCond= 2.83D-03 Info=           0 Equed=N FErr=  1.52D-15 BErr=  0.00D+00
 DidBck=F Rises=F RFO-DIIS coefs:    1.27286   -0.27286
 Iteration  1 RMS(Cart)=  0.00470030 RMS(Int)=  0.00016430
 Iteration  2 RMS(Cart)=  0.00003311 RMS(Int)=  0.00016046
 Iteration  3 RMS(Cart)=  0.00000000 RMS(Int)=  0.00016046
 ITry= 1 IFail=0 DXMaxC= 9.68D-03 DCOld= 1.00D+10 DXMaxT= 3.23D-01 DXLimC= 3.00D+00 Rises=F
 Variable       Old X    -DE/DX   Delta X   Delta X   Delta X     New X
                                 (Linear)    (Quad)   (Total)
    R1        2.07982  -0.00072  -0.00184  -0.00090  -0.00274   2.07707
    R2        2.07423   0.00021   0.00106   0.00017   0.00123   2.07546
    R3        2.07423   0.00021   0.00106   0.00018   0.00123   2.07546
    R4        2.58483   0.00046  -0.00086   0.00099   0.00013   2.58496
    A1        1.88605   0.00030   0.00311   0.00303   0.00623   1.89229
    A2        1.88598   0.00034   0.00309   0.00313   0.00627   1.89224
    A3        1.91956  -0.00051   0.01419  -0.00681   0.00729   1.92685
    A4        1.91411  -0.00084  -0.00781  -0.00496  -0.01311   1.90101
    A5        1.92852   0.00037  -0.00578   0.00284  -0.00322   1.92531
    A6        1.92863   0.00034  -0.00575   0.00274  -0.00326   1.92537
    D1        2.05205   0.00009   0.00123   0.00268   0.00374   2.05579
    D2       -2.08076  -0.00028  -0.00919  -0.00122  -0.01033  -2.09110
    D3        2.08074   0.00031   0.00917   0.00129   0.01035   2.09108
    D4       -2.12169   0.00059   0.01836   0.00251   0.02068  -2.10101
         Item               Value     Threshold  Converged?
 Maximum Force            0.000839     0.000450     NO 
 RMS     Force            0.000443     0.000300     NO 
 Maximum Displacement     0.009679     0.001800     NO 
 RMS     Displacement     0.004713     0.001200     NO 
 Predicted change in Energy=-1.479259D-05
 GradGradGradGradGradGradGradGradGradGradGradGradGradGradGradGradGradGrad

 Leave Link  103 at Wed Apr 10 09:21:35 2024, MaxMem=   104857600 cpu:               0.0 elap:               0.0
 (Enter /opt/g16/l202.exe)
                          Input orientation:                          
 ---------------------------------------------------------------------
 Center     Atomic      Atomic             Coordinates (Angstroms)
 Number     Number       Type             X           Y           Z
 ---------------------------------------------------------------------
      1          1           0        0.000192    1.077272    0.995085
      2          1           0       -0.893753   -0.462803    1.074273
      3          1           0        0.893619   -0.463067    1.074300
      4          6           0        0.000012    0.028358    0.666620
      5          8           0       -0.000029   -0.043529   -0.699391
 ---------------------------------------------------------------------
                    Distance matrix (angstroms):
                    1          2          3          4          5
     1  H    0.000000
     2  H    1.782481   0.000000
     3  H    1.782451   1.787372   0.000000
     4  C    1.099140   1.098289   1.098287   0.000000
     5  O    2.031611   2.029881   2.029925   1.367900   0.000000
 Stoichiometry    CH3O(2)
 Framework group  C1[X(CH3O)]
 Deg. of freedom     9
 Full point group                 C1      NOp   1
 RotChk:  IX=0 Diff= 5.62D-03
 Largest Abelian subgroup         C1      NOp   1
 Largest concise Abelian subgroup C1      NOp   1
                         Standard orientation:                         
 ---------------------------------------------------------------------
 Center     Atomic      Atomic             Coordinates (Angstroms)
 Number     Number       Type             X           Y           Z
 ---------------------------------------------------------------------
      1          1           0       -0.960437   -0.002735    1.028926
      2          1           0       -0.957082    0.895062   -0.510940
      3          1           0       -0.957159   -0.892304   -0.515674
      4          6           0       -0.576323    0.000005   -0.000908
      5          8           0        0.791577   -0.000006    0.000392
 ---------------------------------------------------------------------
 Rotational constants (GHZ):         157.5403412          27.8894216          27.8713283
 Leave Link  202 at Wed Apr 10 09:21:35 2024, MaxMem=   104857600 cpu:               0.0 elap:               0.0
 (Enter /opt/g16/l301.exe)
 Standard basis: STO-3G (5D, 7F)
 Ernie: Thresh=  0.10000D-02 Tol=  0.10000D-05 Strict=F.
 There are    13 symmetry adapted cartesian basis functions of A   symmetry.
 There are    13 symmetry adapted basis functions of A   symmetry.
    13 basis functions,    39 primitive gaussians,    13 cartesian basis functions
     9 alpha electrons        8 beta electrons
       nuclear repulsion energy        34.3841459003 Hartrees.
 IExCor=    0 DFT=F Ex=HF Corr=None ExCW=0 ScaHFX=  1.000000
 ScaDFX=  1.000000  1.000000  1.000000  1.000000 ScalE2=  1.000000  1.000000
 IRadAn=      5 IRanWt=     -1 IRanGd=            0 ICorTp=0 IEmpDi=  4
 NAtoms=    5 NActive=    5 NUniq=    5 SFac= 1.00D+00 NAtFMM=   60 NAOKFM=F Big=F
 Integral buffers will be    131072 words long.
 Raffenetti 2 integral format.
 Two-electron integral symmetry is turned on.
 Leave Link  301 at Wed Apr 10 09:21:35 2024, MaxMem=   104857600 cpu:               0.0 elap:               0.0
 (Enter /opt/g16/l402.exe)
 External calculation of energy and first derivatives.
 Running external command "python3 -u ../pes/h3co_pes.py R"
         input file       "/home/jh-li/scratch/g16/Gau-1449085.EIn"
         output file      "/home/jh-li/scratch/g16/Gau-1449085.EOu"
         message file     "/home/jh-li/scratch/g16/Gau-1449085.EMs"
         fchk file        "/home/jh-li/scratch/g16/Gau-1449085.EFC"
         mat. el file     "/home/jh-li/scratch/g16/Gau-1449085.EUF"
 Recovered energy= -575.287006828     dipole=      0.000000000000      0.000000000000      0.000000000000
 Energy=    -575.287007     NIter=   0.
 Dipole moment=       0.000000       0.000000       0.000000
 Leave Link  402 at Wed Apr 10 09:21:35 2024, MaxMem=   104857600 cpu:               0.0 elap:               0.2
 (Enter /opt/g16/l716.exe)
 Dipole        = 0.00000000D+00 0.00000000D+00 0.00000000D+00
 ***** Axes restored to original set *****
 -------------------------------------------------------------------
 Center     Atomic                   Forces (Hartrees/Bohr)
 Number     Number              X              Y              Z
 -------------------------------------------------------------------
      1        1          -0.000003024   -0.000192262   -0.000395580
      2        1           0.000186585   -0.000281922    0.000163771
      3        1          -0.000186347   -0.000285750    0.000159027
      4        6           0.000000228    0.000581133    0.000455413
      5        8           0.000002633    0.000169629   -0.000415535
 -------------------------------------------------------------------
 Cartesian Forces:  Max     0.000581133 RMS     0.000285518
 Leave Link  716 at Wed Apr 10 09:21:35 2024, MaxMem=   104857600 cpu:               0.0 elap:               0.0
 (Enter /opt/g16/l103.exe)

 GradGradGradGradGradGradGradGradGradGradGradGradGradGradGradGradGradGrad
 Berny optimization.
 Using GEDIIS/GDIIS optimizer.
 FormGI is forming the generalized inverse of G from B-inverse, IUseBI=4.
 Internal  Forces:  Max     0.000424744 RMS     0.000235259
 Search for a local minimum.
 Step number   4 out of a maximum of   24
 All quantities printed in internal units (Hartrees-Bohrs-Radians)
 RMS Force = .23526D-03 SwitMx=.10000D-02 MixMth= 2
 Mixed Optimization -- En-DIIS/RFO-DIIS
 Swapping is turned off.
 Update second derivatives using D2CorX and points    1    2    3    4
 DE= -1.98D-05 DEPred=-1.48D-05 R= 1.34D+00
 TightC=F SS=  1.41D+00  RLast= 3.15D-02 DXNew= 5.4274D-01 9.4404D-02
 Trust test= 1.34D+00 RLast= 3.15D-02 DXMaxT set to 3.23D-01
 The second derivative matrix:
                          R1        R2        R3        R4        A1
           R1           0.33924
           R2           0.00163   0.34150
           R3           0.00164  -0.00118   0.34150
           R4          -0.00815   0.00048   0.00047   0.51229
           A1           0.00563  -0.00468  -0.00468   0.00419   0.14959
           A2           0.00564  -0.00465  -0.00466   0.00439  -0.01004
           A3           0.01530  -0.00749  -0.00747   0.00495  -0.01861
           A4          -0.00515   0.00847   0.00849  -0.01333   0.01759
           A5          -0.01088   0.00413   0.00412   0.00046   0.01012
           A6          -0.01092   0.00411   0.00410   0.00041   0.00996
           D1          -0.00002   0.00006   0.00007   0.00088   0.00147
           D2          -0.00309  -0.00012  -0.00012   0.00491   0.00445
           D3           0.00305   0.00015   0.00015  -0.00468  -0.00402
           D4           0.00614   0.00027   0.00027  -0.00959  -0.00847
                          A2        A3        A4        A5        A6
           A2           0.15037
           A3          -0.01936   0.10916
           A4           0.01704   0.04352   0.13167
           A5           0.01038   0.02004  -0.02396   0.15288
           A6           0.01019   0.02039  -0.02372  -0.00725   0.15264
           D1           0.00155  -0.00289  -0.00206   0.00094   0.00087
           D2           0.00445  -0.00249  -0.00910   0.00087   0.00087
           D3          -0.00400   0.00174   0.00848  -0.00063  -0.00065
           D4          -0.00845   0.00423   0.01759  -0.00150  -0.00152
                          D1        D2        D3        D4
           D1           0.00247
           D2           0.00008   0.02322
           D3          -0.00003  -0.00256   0.02321
           D4          -0.00011  -0.00512   0.00512   0.03089
 ITU=  1  1  1  0
     Eigenvalues ---    0.02037   0.06077   0.09006   0.15312   0.16034
     Eigenvalues ---    0.33940   0.34225   0.34268   0.51275
 En-DIIS/RFO-DIIS/Sim-DIIS IScMMF=       -3 using points:     4    3    2
 RFO step:  Lambda=-5.46057836D-06.
 NNeg= 0 NGDIIS= 3 SimSw=  2.50D-01 Rises=F DC= -1.98D-05 SmlDif=  1.00D-05
 NRisDI= 0 DoIntr=F SqrtH=F CThrHd= 10.0 CDAdj=  3.0
 RMS Error=  0.2788100028D-02 NUsed= 3 OKEnD=T EnDIS=F
 InvSVX:  RCond= 8.40D-06 Info=           0 Equed=N FErr=  4.22D-14 BErr=  9.53D-17
 DidBck=F Rises=F RFO-DIIS coefs:    1.70730   -0.84345    0.13615
 Iteration  1 RMS(Cart)=  0.00211767 RMS(Int)=  0.00007597
 Iteration  2 RMS(Cart)=  0.00000280 RMS(Int)=  0.00007590
 Iteration  3 RMS(Cart)=  0.00000000 RMS(Int)=  0.00007590
 ITry= 1 IFail=0 DXMaxC= 3.21D-03 DCOld= 1.00D+10 DXMaxT= 3.23D-01 DXLimC= 3.00D+00 Rises=F
 Variable       Old X    -DE/DX   Delta X   Delta X   Delta X     New X
                                 (Linear)    (Quad)   (Total)
    R1        2.07707  -0.00030  -0.00102  -0.00014  -0.00116   2.07591
    R2        2.07546   0.00004   0.00034  -0.00012   0.00022   2.07569
    R3        2.07546   0.00004   0.00035  -0.00012   0.00023   2.07569
    R4        2.58496   0.00040   0.00052   0.00045   0.00098   2.58593
    A1        1.89229   0.00015   0.00286  -0.00001   0.00281   1.89510
    A2        1.89224   0.00017   0.00289   0.00000   0.00288   1.89512
    A3        1.92685  -0.00042  -0.00192   0.00002  -0.00187   1.92498
    A4        1.90101  -0.00037  -0.00537   0.00002  -0.00518   1.89583
    A5        1.92531   0.00025   0.00061  -0.00000   0.00073   1.92604
    A6        1.92537   0.00023   0.00056  -0.00002   0.00065   1.92603
    D1        2.05579   0.00006   0.00203  -0.00001   0.00208   2.05787
    D2       -2.09110  -0.00007  -0.00273   0.00001  -0.00276  -2.09386
    D3        2.09108   0.00009   0.00274   0.00000   0.00280   2.09388
    D4       -2.10101   0.00016   0.00547  -0.00000   0.00556  -2.09544
         Item               Value     Threshold  Converged?
 Maximum Force            0.000425     0.000450     YES
 RMS     Force            0.000235     0.000300     YES
 Maximum Displacement     0.003212     0.001800     NO 
 RMS     Displacement     0.002118     0.001200     NO 
 Predicted change in Energy=-2.601944D-06
 GradGradGradGradGradGradGradGradGradGradGradGradGradGradGradGradGradGrad

 Leave Link  103 at Wed Apr 10 09:21:35 2024, MaxMem=   104857600 cpu:               0.0 elap:               0.0
 (Enter /opt/g16/l202.exe)
                          Input orientation:                          
 ---------------------------------------------------------------------
 Center     Atomic      Atomic             Coordinates (Angstroms)
 Number     Number       Type             X           Y           Z
 ---------------------------------------------------------------------
      1          1           0        0.000169    1.078148    0.993385
      2          1           0       -0.892193   -0.464322    1.075230
      3          1           0        0.892060   -0.464614    1.075214
      4          6           0        0.000011    0.029293    0.666801
      5          8           0       -0.000006   -0.042274   -0.699743
 ---------------------------------------------------------------------
                    Distance matrix (angstroms):
                    1          2          3          4          5
     1  H    0.000000
     2  H    1.783879   0.000000
     3  H    1.783895   1.784253   0.000000
     4  C    1.098524   1.098407   1.098406   0.000000
     5  O    2.030278   2.030924   2.030917   1.368417   0.000000
 Stoichiometry    CH3O(2)
 Framework group  C1[X(CH3O)]
 Deg. of freedom     9
 Full point group                 C1      NOp   1
 RotChk:  IX=3 Diff= 3.01D-02
 Largest Abelian subgroup         C1      NOp   1
 Largest concise Abelian subgroup C1      NOp   1
                         Standard orientation:                         
 ---------------------------------------------------------------------
 Center     Atomic      Atomic             Coordinates (Angstroms)
 Number     Number       Type             X           Y           Z
 ---------------------------------------------------------------------
      1          1           0       -0.957634    0.019188    1.030040
      2          1           0       -0.958629    0.882389   -0.531084
      3          1           0       -0.958616   -0.901555   -0.497871
      4          6           0       -0.576604   -0.000004   -0.000107
      5          8           0        0.791813    0.000000   -0.000055
 ---------------------------------------------------------------------
 Rotational constants (GHZ):         157.5570908          27.8656250          27.8642765
 Leave Link  202 at Wed Apr 10 09:21:36 2024, MaxMem=   104857600 cpu:               0.0 elap:               0.0
 (Enter /opt/g16/l301.exe)
 Standard basis: STO-3G (5D, 7F)
 Ernie: Thresh=  0.10000D-02 Tol=  0.10000D-05 Strict=F.
 There are    13 symmetry adapted cartesian basis functions of A   symmetry.
 There are    13 symmetry adapted basis functions of A   symmetry.
    13 basis functions,    39 primitive gaussians,    13 cartesian basis functions
     9 alpha electrons        8 beta electrons
       nuclear repulsion energy        34.3774599807 Hartrees.
 IExCor=    0 DFT=F Ex=HF Corr=None ExCW=0 ScaHFX=  1.000000
 ScaDFX=  1.000000  1.000000  1.000000  1.000000 ScalE2=  1.000000  1.000000
 IRadAn=      5 IRanWt=     -1 IRanGd=            0 ICorTp=0 IEmpDi=  4
 NAtoms=    5 NActive=    5 NUniq=    5 SFac= 1.00D+00 NAtFMM=   60 NAOKFM=F Big=F
 Integral buffers will be    131072 words long.
 Raffenetti 2 integral format.
 Two-electron integral symmetry is turned on.
 Leave Link  301 at Wed Apr 10 09:21:36 2024, MaxMem=   104857600 cpu:               0.1 elap:               0.0
 (Enter /opt/g16/l402.exe)
 External calculation of energy and first derivatives.
 Running external command "python3 -u ../pes/h3co_pes.py R"
         input file       "/home/jh-li/scratch/g16/Gau-1449085.EIn"
         output file      "/home/jh-li/scratch/g16/Gau-1449085.EOu"
         message file     "/home/jh-li/scratch/g16/Gau-1449085.EMs"
         fchk file        "/home/jh-li/scratch/g16/Gau-1449085.EFC"
         mat. el file     "/home/jh-li/scratch/g16/Gau-1449085.EUF"
 Recovered energy= -575.287010019     dipole=      0.000000000000      0.000000000000      0.000000000000
 Energy=    -575.287010     NIter=   0.
 Dipole moment=       0.000000       0.000000       0.000000
 Leave Link  402 at Wed Apr 10 09:21:36 2024, MaxMem=   104857600 cpu:               0.0 elap:               0.2
 (Enter /opt/g16/l716.exe)
 Dipole        = 0.00000000D+00 0.00000000D+00 0.00000000D+00
 ***** Axes restored to original set *****
 -------------------------------------------------------------------
 Center     Atomic                   Forces (Hartrees/Bohr)
 Number     Number              X              Y              Z
 -------------------------------------------------------------------
      1        1           0.000002379   -0.000025620   -0.000013940
      2        1           0.000009794    0.000005705   -0.000031166
      3        1          -0.000007042    0.000006946   -0.000029686
      4        6          -0.000005186    0.000035568    0.000149325
      5        8          -0.000000516   -0.000031830   -0.000107334
 -------------------------------------------------------------------
 Cartesian Forces:  Max     0.000149325 RMS     0.000051029
 Leave Link  716 at Wed Apr 10 09:21:36 2024, MaxMem=   104857600 cpu:               0.0 elap:               0.0
 (Enter /opt/g16/l103.exe)

 GradGradGradGradGradGradGradGradGradGradGradGradGradGradGradGradGradGrad
 Berny optimization.
 Using GEDIIS/GDIIS optimizer.
 FormGI is forming the generalized inverse of G from B-inverse, IUseBI=4.
 Internal  Forces:  Max     0.000102206 RMS     0.000031474
 Search for a local minimum.
 Step number   5 out of a maximum of   24
 All quantities printed in internal units (Hartrees-Bohrs-Radians)
 RMS Force = .31474D-04 SwitMx=.10000D-02 MixMth= 2
 Mixed Optimization -- En-DIIS/RFO-DIIS
 Swapping is turned off.
 Update second derivatives using D2CorX and points    1    2    3    4    5
 DE= -3.19D-06 DEPred=-2.60D-06 R= 1.23D+00
 TightC=F SS=  1.41D+00  RLast= 1.00D-02 DXNew= 5.4274D-01 3.0089D-02
 Trust test= 1.23D+00 RLast= 1.00D-02 DXMaxT set to 3.23D-01
 The second derivative matrix:
                          R1        R2        R3        R4        A1
           R1           0.33558
           R2           0.00035   0.34208
           R3           0.00048  -0.00063   0.34202
           R4           0.00300   0.00069   0.00058   0.49182
           A1           0.01259  -0.00441  -0.00447  -0.00872   0.14172
           A2           0.01249  -0.00427  -0.00434  -0.00868  -0.01799
           A3           0.01247  -0.00999  -0.00983   0.01928  -0.00773
           A4          -0.01490   0.00677   0.00693   0.00913   0.03150
           A5          -0.01124   0.00577   0.00567  -0.00505   0.00575
           A6          -0.01120   0.00566   0.00557  -0.00492   0.00569
           D1          -0.00057   0.00033   0.00031   0.00108   0.00160
           D2          -0.00053  -0.00070  -0.00066   0.00271   0.00260
           D3           0.00020   0.00085   0.00080  -0.00230  -0.00206
           D4           0.00073   0.00154   0.00146  -0.00500  -0.00466
                          A2        A3        A4        A5        A6
           A2           0.14237
           A3          -0.00916   0.10566
           A4           0.03078   0.03012   0.10941
           A5           0.00644   0.01774  -0.02016   0.15621
           A6           0.00633   0.01852  -0.01984  -0.00422   0.15539
           D1           0.00180  -0.00520  -0.00301   0.00229   0.00214
           D2           0.00251   0.00278  -0.00409  -0.00190  -0.00181
           D3          -0.00191  -0.00438   0.00300   0.00264   0.00250
           D4          -0.00442  -0.00715   0.00708   0.00454   0.00430
                          D1        D2        D3        D4
           D1           0.00281
           D2          -0.00013   0.02303
           D3           0.00029  -0.00248   0.02327
           D4           0.00042  -0.00486   0.00510   0.03061
 ITU=  1  1  1  1  0
     Eigenvalues ---    0.01989   0.06031   0.08689   0.13463   0.16037
     Eigenvalues ---    0.33675   0.34215   0.34268   0.49358
 En-DIIS/RFO-DIIS/Sim-DIIS IScMMF=       -3 using points:     5    4    3    2
 RFO step:  Lambda=-4.81750913D-08.
 NNeg= 0 NGDIIS= 4 SimSw=  2.50D-01 Rises=F DC= -3.19D-06 SmlDif=  1.00D-05
 NRisDI= 0 DoIntr=F SqrtH=F CThrHd= 10.0 CDAdj=  3.0
 RMS Error=  0.2244070686D-03 NUsed= 4 OKEnD=F EnDIS=F
 InvSVX:  RCond= 6.21D-09 Info=           0 Equed=N FErr=  5.39D-12 BErr=  9.63D-17
 DIIS inversion failure, remove point   4.
 InvSVX:  RCond= 2.79D-06 Info=           0 Equed=N FErr=  2.72D-15 BErr=  6.21D-17
 RFO-DIIS uses    3 points instead of    4
 DidBck=F Rises=F RFO-DIIS coefs:    0.96025    0.07311   -0.03336    0.00000
 Iteration  1 RMS(Cart)=  0.00015136 RMS(Int)=  0.00000146
 Iteration  2 RMS(Cart)=  0.00000003 RMS(Int)=  0.00000146
 ITry= 1 IFail=0 DXMaxC= 3.02D-04 DCOld= 1.00D+10 DXMaxT= 3.23D-01 DXLimC= 3.00D+00 Rises=F
 Variable       Old X    -DE/DX   Delta X   Delta X   Delta X     New X
                                 (Linear)    (Quad)   (Total)
    R1        2.07591  -0.00003  -0.00005  -0.00007  -0.00012   2.07579
    R2        2.07569  -0.00002   0.00003  -0.00007  -0.00004   2.07565
    R3        2.07569  -0.00002   0.00003  -0.00006  -0.00003   2.07566
    R4        2.58593   0.00010  -0.00003   0.00023   0.00019   2.58612
    A1        1.89510   0.00000   0.00010   0.00007   0.00017   1.89526
    A2        1.89512   0.00000   0.00009   0.00004   0.00014   1.89526
    A3        1.92498   0.00002   0.00032  -0.00001   0.00030   1.92528
    A4        1.89583   0.00002  -0.00023   0.00013  -0.00010   1.89573
    A5        1.92604  -0.00002  -0.00014  -0.00011  -0.00025   1.92578
    A6        1.92603  -0.00002  -0.00013  -0.00011  -0.00025   1.92578
    D1        2.05787   0.00001   0.00004   0.00018   0.00022   2.05809
    D2       -2.09386  -0.00000  -0.00024  -0.00001  -0.00024  -2.09410
    D3        2.09388   0.00000   0.00023  -0.00003   0.00021   2.09409
    D4       -2.09544   0.00000   0.00047  -0.00002   0.00045  -2.09500
         Item               Value     Threshold  Converged?
 Maximum Force            0.000102     0.000450     YES
 RMS     Force            0.000031     0.000300     YES
 Maximum Displacement     0.000302     0.001800     YES
 RMS     Displacement     0.000151     0.001200     YES
 Predicted change in Energy=-2.401902D-08
 Optimization completed.
    -- Stationary point found.
                           ----------------------------
                           !   Optimized Parameters   !
                           ! (Angstroms and Degrees)  !
 --------------------------                            --------------------------
 ! Name  Definition              Value          Derivative Info.                !
 --------------------------------------------------------------------------------
 ! R1    R(1,4)                  1.0985         -DE/DX =    0.0                 !
 ! R2    R(2,4)                  1.0984         -DE/DX =    0.0                 !
 ! R3    R(3,4)                  1.0984         -DE/DX =    0.0                 !
 ! R4    R(4,5)                  1.3684         -DE/DX =    0.0001              !
 ! A1    A(1,4,2)              108.581          -DE/DX =    0.0                 !
 ! A2    A(1,4,3)              108.5825         -DE/DX =    0.0                 !
 ! A3    A(1,4,5)              110.293          -DE/DX =    0.0                 !
 ! A4    A(2,4,3)              108.623          -DE/DX =    0.0                 !
 ! A5    A(2,4,5)              110.3538         -DE/DX =    0.0                 !
 ! A6    A(3,4,5)              110.3533         -DE/DX =    0.0                 !
 ! D1    D(1,4,3,2)            117.907          -DE/DX =    0.0                 !
 ! D2    D(1,4,5,2)           -119.9692         -DE/DX =    0.0                 !
 ! D3    D(1,4,5,3)            119.9707         -DE/DX =    0.0                 !
 ! D4    D(2,4,5,3)           -120.0601         -DE/DX =    0.0                 !
 --------------------------------------------------------------------------------
 Largest change from initial coordinates is atom    1       0.008 Angstoms.
 GradGradGradGradGradGradGradGradGradGradGradGradGradGradGradGradGradGrad

 Leave Link  103 at Wed Apr 10 09:21:36 2024, MaxMem=   104857600 cpu:               0.0 elap:               0.0
 (Enter /opt/g16/l202.exe)
                          Input orientation:                          
 ---------------------------------------------------------------------
 Center     Atomic      Atomic             Coordinates (Angstroms)
 Number     Number       Type             X           Y           Z
 ---------------------------------------------------------------------
      1          1           0        0.000169    1.078148    0.993385
      2          1           0       -0.892193   -0.464322    1.075230
      3          1           0        0.892060   -0.464614    1.075214
      4          6           0        0.000011    0.029293    0.666801
      5          8           0       -0.000006   -0.042274   -0.699743
 ---------------------------------------------------------------------
                    Distance matrix (angstroms):
                    1          2          3          4          5
     1  H    0.000000
     2  H    1.783879   0.000000
     3  H    1.783895   1.784253   0.000000
     4  C    1.098524   1.098407   1.098406   0.000000
     5  O    2.030278   2.030924   2.030917   1.368417   0.000000
 Stoichiometry    CH3O(2)
 Framework group  C1[X(CH3O)]
 Deg. of freedom     9
 Full point group                 C1      NOp   1
 RotChk:  IX=3 Diff= 2.33D-13
 Largest Abelian subgroup         C1      NOp   1
 Largest concise Abelian subgroup C1      NOp   1
                         Standard orientation:                         
 ---------------------------------------------------------------------
 Center     Atomic      Atomic             Coordinates (Angstroms)
 Number     Number       Type             X           Y           Z
 ---------------------------------------------------------------------
      1          1           0       -0.957634    0.019188    1.030040
      2          1           0       -0.958629    0.882389   -0.531084
      3          1           0       -0.958616   -0.901555   -0.497871
      4          6           0       -0.576604   -0.000004   -0.000107
      5          8           0        0.791813    0.000000   -0.000055
 ---------------------------------------------------------------------
 Rotational constants (GHZ):         157.5570908          27.8656250          27.8642765
 Leave Link  202 at Wed Apr 10 09:21:36 2024, MaxMem=   104857600 cpu:               0.0 elap:               0.0
 (Enter /opt/g16/l601.exe)
 Leave Link  601 at Wed Apr 10 09:21:36 2024, MaxMem=   104857600 cpu:               0.0 elap:               0.0
 (Enter /opt/g16/l9999.exe)
 Unable to Open any file for archive entry.
 1\1\GINC-DESKTOP-1D9QDE1\FOpt\External='python3 -u ../pes/h3co_pes.py'
 \ZDO\C1H3O1(2)\JH-LI\10-Apr-2024\0\\#p external="python3 -u ../pes/h3c
 o_pes.py" opt=nomicro\\CH3O\\0,2\H,0.0001692379,1.0781482843,0.9933853
 024\H,-0.8921932564,-0.4643224175,1.0752297486\H,0.8920596742,-0.46461
 44692,1.0752136169\C,0.0000109594,0.0292927046,0.666801093\O,-0.000005
 9602,-0.0422740302,-0.6997427181\\Version=ES64L-G16RevC.01\HF=-575.287
 01\S2=0.\S2-1=0.\S2A=0.\RMSD=0.000e+00\RMSF=5.103e-05\Dipole=0.,0.,0.\
 PG=C01 [X(C1H3O1)]\\@
 The archive entry for this job was punched.


 VIRTUE IS LEARNED AT YOUR MOTHER'S KNEE,
 VICES ARE PICKED UP AT SOME OTHER JOINT.
 Job cpu time:       0 days  0 hours  0 minutes  1.1 seconds.
 Elapsed time:       0 days  0 hours  0 minutes  1.8 seconds.
 File lengths (MBytes):  RWF=      6 Int=      0 D2E=      0 Chk=      1 Scr=      1
 Normal termination of Gaussian 16 at Wed Apr 10 09:21:36 2024.
 Initial command:
 /opt/g16/l1.exe "/home/jh-li/scratch/g16/Gau-1449082.inp" -scrdir="/home/jh-li/scratch/g16/"
 Entering Link 1 = /opt/g16/l1.exe PID=   1449120.
  
 Copyright (c) 1988-2019, Gaussian, Inc.  All Rights Reserved.
  
 This is part of the Gaussian(R) 16 program.  It is based on
 the Gaussian(R) 09 system (copyright 2009, Gaussian, Inc.),
 the Gaussian(R) 03 system (copyright 2003, Gaussian, Inc.),
 the Gaussian(R) 98 system (copyright 1998, Gaussian, Inc.),
 the Gaussian(R) 94 system (copyright 1995, Gaussian, Inc.),
 the Gaussian 92(TM) system (copyright 1992, Gaussian, Inc.),
 the Gaussian 90(TM) system (copyright 1990, Gaussian, Inc.),
 the Gaussian 88(TM) system (copyright 1988, Gaussian, Inc.),
 the Gaussian 86(TM) system (copyright 1986, Carnegie Mellon
 University), and the Gaussian 82(TM) system (copyright 1983,
 Carnegie Mellon University). Gaussian is a federally registered
 trademark of Gaussian, Inc.
  
 This software contains proprietary and confidential information,
 including trade secrets, belonging to Gaussian, Inc.
  
 This software is provided under written license and may be
 used, copied, transmitted, or stored only in accord with that
 written license.
  
 The following legend is applicable only to US Government
 contracts under FAR:
  
                    RESTRICTED RIGHTS LEGEND
  
 Use, reproduction and disclosure by the US Government is
 subject to restrictions as set forth in subparagraphs (a)
 and (c) of the Commercial Computer Software - Restricted
 Rights clause in FAR 52.227-19.
  
 Gaussian, Inc.
 340 Quinnipiac St., Bldg. 40, Wallingford CT 06492
  
  
 ---------------------------------------------------------------
 Warning -- This program may not be used in any manner that
 competes with the business of Gaussian, Inc. or will provide
 assistance to any competitor of Gaussian, Inc.  The licensee
 of this program is prohibited from giving any competitor of
 Gaussian, Inc. access to this program.  By using this program,
 the user acknowledges that Gaussian, Inc. is engaged in the
 business of creating and licensing software in the field of
 computational chemistry and represents and warrants to the
 licensee that it is not a competitor of Gaussian, Inc. and that
 it will not use this program in any manner prohibited above.
 ---------------------------------------------------------------
  

 Cite this work as:
 Gaussian 16, Revision C.01,
 M. J. Frisch, G. W. Trucks, H. B. Schlegel, G. E. Scuseria, 
 M. A. Robb, J. R. Cheeseman, G. Scalmani, V. Barone, 
 G. A. Petersson, H. Nakatsuji, X. Li, M. Caricato, A. V. Marenich, 
 J. Bloino, B. G. Janesko, R. Gomperts, B. Mennucci, H. P. Hratchian, 
 J. V. Ortiz, A. F. Izmaylov, J. L. Sonnenberg, D. Williams-Young, 
 F. Ding, F. Lipparini, F. Egidi, J. Goings, B. Peng, A. Petrone, 
 T. Henderson, D. Ranasinghe, V. G. Zakrzewski, J. Gao, N. Rega, 
 G. Zheng, W. Liang, M. Hada, M. Ehara, K. Toyota, R. Fukuda, 
 J. Hasegawa, M. Ishida, T. Nakajima, Y. Honda, O. Kitao, H. Nakai, 
 T. Vreven, K. Throssell, J. A. Montgomery, Jr., J. E. Peralta, 
 F. Ogliaro, M. J. Bearpark, J. J. Heyd, E. N. Brothers, K. N. Kudin, 
 V. N. Staroverov, T. A. Keith, R. Kobayashi, J. Normand, 
 K. Raghavachari, A. P. Rendell, J. C. Burant, S. S. Iyengar, 
 J. Tomasi, M. Cossi, J. M. Millam, M. Klene, C. Adamo, R. Cammi, 
 J. W. Ochterski, R. L. Martin, K. Morokuma, O. Farkas, 
 J. B. Foresman, and D. J. Fox, Gaussian, Inc., Wallingford CT, 2019.
 
 ******************************************
 Gaussian 16:  ES64L-G16RevC.01  3-Jul-2019
                10-Apr-2024 
 ******************************************
 %nproc=1
 Will use up to    1 processors via shared memory.
 %chk=CH3O-opt-freq.chk
 --------------------------------------------------------------
 #p external="python3 -u ../pes/h3co_pes.py" freq geom=allcheck
 --------------------------------------------------------------
 1/10=4,18=10,29=7,30=1,38=1/1,3;
 2/12=2,40=1/2;
 3/11=9,14=-4,25=1,30=1,41=9900000,43=2,71=2,140=1/1;
 4/20=17,22=2,24=3,113=1,114=1/2;
 6/7=2,8=2,9=2,10=2/1;
 7/8=1,25=1,44=-1/16;
 1/10=4,18=10,30=1/3;
 99//99;
 Leave Link    1 at Wed Apr 10 09:21:36 2024, MaxMem=           0 cpu:               0.0 elap:               0.0
 (Enter /opt/g16/l101.exe)
 Structure from the checkpoint file:  "CH3O-opt-freq.chk"
 ----
 CH3O
 ----
 Charge =  0 Multiplicity = 2
 Redundant internal coordinates found in file.  (old form).
 H,0,0.0001692379,1.0781482843,0.9933853024
 H,0,-0.8921932564,-0.4643224175,1.0752297486
 H,0,0.8920596742,-0.4646144692,1.0752136169
 C,0,0.0000109594,0.0292927046,0.666801093
 O,0,-0.0000059602,-0.0422740302,-0.6997427181
 Recover connectivity data from disk.
 ITRead=  0  0  0  0  0
 MicOpt= -1 -1 -1 -1 -1
 NAtoms=      5 NQM=        5 NQMF=       0 NMMI=      0 NMMIF=      0
                NMic=       0 NMicF=      0.
                    Isotopes and Nuclear Properties:
 (Nuclear quadrupole moments (NQMom) in fm**2, nuclear magnetic moments (NMagM)
  in nuclear magnetons)

  Atom         1           2           3           4           5
 IAtWgt=           1           1           1          12          16
 AtmWgt=   1.0078250   1.0078250   1.0078250  12.0000000  15.9949146
 NucSpn=           1           1           1           0           0
 AtZEff=   1.0000000   1.0000000   1.0000000   3.6000000   5.6000000
 NQMom=    0.0000000   0.0000000   0.0000000   0.0000000   0.0000000
 NMagM=    2.7928460   2.7928460   2.7928460   0.0000000   0.0000000
 AtZNuc=   1.0000000   1.0000000   1.0000000   6.0000000   8.0000000
 Leave Link  101 at Wed Apr 10 09:21:36 2024, MaxMem=   104857600 cpu:               0.1 elap:               0.1
 (Enter /opt/g16/l103.exe)

 GradGradGradGradGradGradGradGradGradGradGradGradGradGradGradGradGradGrad
 Berny optimization.
 Initialization pass.
 Trust Radius=3.00D-01 FncErr=1.00D-07 GrdErr=1.00D-07 EigMax=2.50D+02 EigMin=1.00D-04
 Number of steps in this run=      2 maximum allowed number of steps=      2.
 GradGradGradGradGradGradGradGradGradGradGradGradGradGradGradGradGradGrad

 Leave Link  103 at Wed Apr 10 09:21:36 2024, MaxMem=   104857600 cpu:               0.0 elap:               0.0
 (Enter /opt/g16/l202.exe)
                          Input orientation:                          
 ---------------------------------------------------------------------
 Center     Atomic      Atomic             Coordinates (Angstroms)
 Number     Number       Type             X           Y           Z
 ---------------------------------------------------------------------
      1          1           0        0.000169    1.078148    0.993385
      2          1           0       -0.892193   -0.464322    1.075230
      3          1           0        0.892060   -0.464614    1.075214
      4          6           0        0.000011    0.029293    0.666801
      5          8           0       -0.000006   -0.042274   -0.699743
 ---------------------------------------------------------------------
                    Distance matrix (angstroms):
                    1          2          3          4          5
     1  H    0.000000
     2  H    1.783879   0.000000
     3  H    1.783895   1.784253   0.000000
     4  C    1.098524   1.098407   1.098406   0.000000
     5  O    2.030278   2.030924   2.030917   1.368417   0.000000
 Stoichiometry    CH3O(2)
 Framework group  C1[X(CH3O)]
 Deg. of freedom     9
 Full point group                 C1      NOp   1
 RotChk:  IX=3 Diff= 1.73D-13
 Largest Abelian subgroup         C1      NOp   1
 Largest concise Abelian subgroup C1      NOp   1
                         Standard orientation:                         
 ---------------------------------------------------------------------
 Center     Atomic      Atomic             Coordinates (Angstroms)
 Number     Number       Type             X           Y           Z
 ---------------------------------------------------------------------
      1          1           0       -0.957634    0.019188    1.030040
      2          1           0       -0.958629    0.882389   -0.531084
      3          1           0       -0.958616   -0.901555   -0.497871
      4          6           0       -0.576604   -0.000004   -0.000107
      5          8           0        0.791813    0.000000   -0.000055
 ---------------------------------------------------------------------
 Rotational constants (GHZ):         157.5570908          27.8656250          27.8642765
 Leave Link  202 at Wed Apr 10 09:21:36 2024, MaxMem=   104857600 cpu:               0.0 elap:               0.0
 (Enter /opt/g16/l301.exe)
 Standard basis: STO-3G (5D, 7F)
 Ernie: Thresh=  0.10000D-02 Tol=  0.10000D-05 Strict=F.
 There are    13 symmetry adapted cartesian basis functions of A   symmetry.
 There are    13 symmetry adapted basis functions of A   symmetry.
    13 basis functions,    39 primitive gaussians,    13 cartesian basis functions
     9 alpha electrons        8 beta electrons
       nuclear repulsion energy        34.3774599807 Hartrees.
 IExCor=    0 DFT=F Ex=HF Corr=None ExCW=0 ScaHFX=  1.000000
 ScaDFX=  1.000000  1.000000  1.000000  1.000000 ScalE2=  1.000000  1.000000
 IRadAn=      5 IRanWt=     -1 IRanGd=            0 ICorTp=0 IEmpDi=  4
 NAtoms=    5 NActive=    5 NUniq=    5 SFac= 1.00D+00 NAtFMM=   60 NAOKFM=F Big=F
 Integral buffers will be    131072 words long.
 Raffenetti 2 integral format.
 Two-electron integral symmetry is turned on.
 Leave Link  301 at Wed Apr 10 09:21:36 2024, MaxMem=   104857600 cpu:               0.0 elap:               0.0
 (Enter /opt/g16/l402.exe)
 External calculation of energy, first and second derivatives.
 Running external command "python3 -u ../pes/h3co_pes.py R"
         input file       "/home/jh-li/scratch/g16/Gau-1449120.EIn"
         output file      "/home/jh-li/scratch/g16/Gau-1449120.EOu"
         message file     "/home/jh-li/scratch/g16/Gau-1449120.EMs"
         fchk file        "/home/jh-li/scratch/g16/Gau-1449120.EFC"
         mat. el file     "/home/jh-li/scratch/g16/Gau-1449120.EUF"
 Recovered energy= -575.287010019     dipole=      0.000000000000      0.000000000000      0.000000000000
 Energy=    -575.287010     NIter=   0.
 Dipole moment=       0.000000       0.000000       0.000000
 Leave Link  402 at Wed Apr 10 09:21:37 2024, MaxMem=   104857600 cpu:               0.0 elap:               1.1
 (Enter /opt/g16/l601.exe)
 Leave Link  601 at Wed Apr 10 09:21:37 2024, MaxMem=   104857600 cpu:               0.0 elap:               0.0
 (Enter /opt/g16/l716.exe)
 Dipole        = 0.00000000D+00 0.00000000D+00 0.00000000D+00
 Full mass-weighted force constant matrix:
 Low frequencies ---  -16.0080   -2.7068   -0.1491    2.1842    6.7489    9.7599
 Low frequencies ---  677.7230  679.3950 1082.5142
 Diagonal vibrational polarizability:
        0.0000000       0.0000000       0.0000000
 Harmonic frequencies (cm**-1), IR intensities (KM/Mole), Raman scattering
 activities (A**4/AMU), depolarization ratios for plane and unpolarized
 incident light, reduced masses (AMU), force constants (mDyne/A),
 and normal coordinates:
                      1                      2                      3
                      A                      A                      A
 Frequencies --    677.7226               679.3926              1082.5142
 Red. masses --      1.3364                 1.3364                 9.3391
 Frc consts  --      0.3616                 0.3634                 6.4480
 IR Inten    --      0.0000                 0.0000                 0.0000
  Atom  AN      X      Y      Z        X      Y      Z        X      Y      Z
     1   1     0.64   0.01   0.13    -0.00   0.48  -0.01     0.33  -0.00  -0.04
     2   1    -0.31   0.16   0.39     0.55   0.22   0.15     0.34  -0.03   0.02
     3   1    -0.32  -0.14   0.39    -0.55   0.21  -0.16     0.34   0.03   0.02
     4   6     0.00  -0.00  -0.16     0.00  -0.16   0.00     0.62   0.00   0.00
     5   8    -0.00   0.00   0.06    -0.00   0.06  -0.00    -0.53  -0.00  -0.00
                      4                      5                      6
                      A                      A                      A
 Frequencies --   1375.3080              1400.6004              1400.7885
 Red. masses --      1.1263                 1.0241                 1.0240
 Frc consts  --      1.2552                 1.1836                 1.1839
 IR Inten    --      0.0000                 0.0000                 0.0000
  Atom  AN      X      Y      Z        X      Y      Z        X      Y      Z
     1   1     0.54   0.00   0.22     0.47  -0.06   0.18     0.04   0.64   0.00
     2   1     0.53   0.18  -0.12    -0.20  -0.36  -0.46    -0.43  -0.00   0.31
     3   1     0.53  -0.19  -0.11    -0.28   0.34  -0.40     0.39   0.05  -0.39
     4   6    -0.10   0.00   0.00     0.00   0.00   0.03     0.00  -0.03   0.00
     5   8    -0.03   0.00   0.00     0.00   0.00   0.02     0.00  -0.02   0.00
                      7                      8                      9
                      A                      A                      A
 Frequencies --   2966.1512              3071.9012              3072.3893
 Red. masses --      1.0265                 1.0932                 1.0933
 Frc consts  --      5.3210                 6.0778                 6.0803
 IR Inten    --      0.0000                 0.0000                 0.0000
  Atom  AN      X      Y      Z        X      Y      Z        X      Y      Z
     1   1    -0.19   0.01   0.55    -0.29   0.02   0.76    -0.01  -0.04   0.03
     2   1    -0.19   0.47  -0.28     0.16  -0.37   0.18    -0.25   0.54  -0.35
     3   1    -0.19  -0.48  -0.26     0.14   0.32   0.14     0.26   0.58   0.34
     4   6     0.04  -0.00  -0.00    -0.00   0.00  -0.09    -0.00  -0.09  -0.00
     5   8     0.01  -0.00  -0.00     0.00   0.00  -0.00    -0.00  -0.00  -0.00

 -------------------
 - Thermochemistry -
 -------------------
 Temperature   298.150 Kelvin.  Pressure   1.00000 Atm.
 Atom     1 has atomic number  1 and mass   1.00783
 Atom     2 has atomic number  1 and mass   1.00783
 Atom     3 has atomic number  1 and mass   1.00783
 Atom     4 has atomic number  6 and mass  12.00000
 Atom     5 has atomic number  8 and mass  15.99491
 Molecular mass:    31.01839 amu.
 Principal axes and moments of inertia in atomic units:
                           1         2         3
     Eigenvalues --    11.45452  64.76586  64.76900
           X            1.00000  -0.00000  -0.00001
           Y            0.00000   1.00000  -0.00000
           Z            0.00001   0.00000   1.00000
 This molecule is an asymmetric top.
 Rotational symmetry number  1.
 Rotational temperatures (Kelvin)      7.56155     1.33734     1.33727
 Rotational constants (GHZ):         157.55709    27.86563    27.86428
 Zero-point vibrational energy      94067.0 (Joules/Mol)
                                   22.48254 (Kcal/Mol)
 Vibrational temperatures:    975.09   977.49  1557.50  1978.76  2015.15
          (Kelvin)           2015.42  4267.63  4419.78  4420.48
 
 Zero-point correction=                           0.035828 (Hartree/Particle)
 Thermal correction to Energy=                    0.038954
 Thermal correction to Enthalpy=                  0.039898
 Thermal correction to Gibbs Free Energy=         0.012859
 Sum of electronic and zero-point Energies=           -575.251182
 Sum of electronic and thermal Energies=              -575.248056
 Sum of electronic and thermal Enthalpies=            -575.247112
 Sum of electronic and thermal Free Energies=         -575.274151
 
                     E (Thermal)             CV                S
                      KCal/Mol        Cal/Mol-Kelvin    Cal/Mol-Kelvin
 Total                   24.444              8.325             56.908
 Electronic               0.000              0.000              1.377
 Translational            0.889              2.981             36.229
 Rotational               0.889              2.981             18.514
 Vibrational             22.666              2.364              0.788
                       Q            Log10(Q)             Ln(Q)
 Total Bot       0.121677D-05         -5.914790        -13.619308
 Total V=0       0.367307D+11         10.565029         24.326879
 Vib (Bot)       0.361082D-16        -16.442394        -37.860011
 Vib (V=0)       0.109000D+01          0.037426          0.086177
 Electronic      0.200000D+01          0.301030          0.693147
 Translational   0.679020D+07          6.831883         15.730991
 Rotational      0.248137D+04          3.394691          7.816564
 ***** Axes restored to original set *****
 -------------------------------------------------------------------
 Center     Atomic                   Forces (Hartrees/Bohr)
 Number     Number              X              Y              Z
 -------------------------------------------------------------------
      1        1           0.000002379   -0.000025620   -0.000013940
      2        1           0.000009794    0.000005705   -0.000031166
      3        1          -0.000007042    0.000006946   -0.000029686
      4        6          -0.000005186    0.000035568    0.000149325
      5        8          -0.000000516   -0.000031830   -0.000107334
 -------------------------------------------------------------------
 Cartesian Forces:  Max     0.000149325 RMS     0.000051029
 Force constants in Cartesian coordinates: 
                1             2             3             4             5 
      1  0.334897D-01
      2  0.427004D-04  0.303046D+00
      3  0.143380D-04  0.813111D-01  0.720005D-01
      4 -0.464473D-02  0.386862D-02 -0.105158D-02  0.228874D+00
      5 -0.226151D-01 -0.145973D-01  0.151962D-01  0.108292D+00  0.934421D-01
      6 -0.114750D-01 -0.526931D-02  0.503775D-02 -0.864926D-01 -0.471487D-01
      7 -0.463829D-02 -0.387240D-02  0.105678D-02 -0.202658D-01  0.123300D-01
      8  0.226122D-01 -0.146024D-01  0.151958D-01 -0.123236D-01 -0.216639D-03
      9  0.114741D-01 -0.527265D-02  0.503765D-02  0.124814D-01 -0.750272D-02
     10 -0.144835D-01 -0.394057D-04 -0.155002D-04 -0.200590D+00 -0.102741D+00
     11 -0.405765D-04 -0.270631D+00 -0.869165D-01 -0.104014D+00 -0.718447D-01
     12 -0.116041D-04 -0.578023D-01 -0.507892D-01  0.654293D-01  0.352230D-01
     13 -0.975748D-02  0.000000D+00 -0.391732D-05 -0.338407D-02  0.473962D-02
     14  0.106586D-05 -0.321555D-02 -0.247508D-01  0.418408D-02 -0.681015D-02
     15 -0.177273D-05 -0.129581D-01 -0.312775D-01  0.962608D-02  0.423003D-02
                6             7             8             9            10 
      6  0.862875D-01
      7 -0.124835D-01  0.228818D+00
      8 -0.749828D-02 -0.108338D+00  0.935194D-01
      9  0.630958D-02  0.864798D-01 -0.471760D-01  0.862856D-01
     10  0.905159D-01 -0.200537D+00  0.102784D+00 -0.905029D-01  0.420908D+00
     11  0.496879D-01  0.104059D+00 -0.719208D-01  0.497167D-01 -0.290565D-05
     12 -0.636112D-01 -0.654206D-01  0.352429D-01 -0.636091D-01  0.615473D-05
     13  0.199060D-01 -0.338734D-02 -0.473994D-02 -0.199029D-01 -0.517755D-02
     14  0.102154D-01 -0.418470D-02 -0.680674D-02  0.102217D-01  0.000000D+00
     15 -0.340112D-01 -0.962504D-02  0.423352D-02 -0.340113D-01 -0.364141D-05
               11            12            13            14            15 
     11  0.420197D+00
     12  0.150945D-03  0.427600D+00
     13  0.000000D+00 -0.350410D-05  0.216413D-01
     14 -0.568180D-02 -0.128309D-01  0.000000D+00  0.224495D-01
     15 -0.126519D-01 -0.249719D+00  0.426350D-05  0.171530D-01  0.349113D+00
 Leave Link  716 at Wed Apr 10 09:21:37 2024, MaxMem=   104857600 cpu:               0.0 elap:               0.0
 (Enter /opt/g16/l103.exe)

 GradGradGradGradGradGradGradGradGradGradGradGradGradGradGradGradGradGrad
 Berny optimization.
 Search for a local minimum.
 Step number   1 out of a maximum of    2
 All quantities printed in internal units (Hartrees-Bohrs-Radians)
 Second derivative matrix not updated -- analytic derivatives used.
 The second derivative matrix:
                          X1        Y1        Z1        X2        Y2
           X1           0.03349
           Y1           0.00004   0.30305
           Z1           0.00001   0.08131   0.07200
           X2          -0.00464   0.00387  -0.00105   0.22887
           Y2          -0.02262  -0.01460   0.01520   0.10829   0.09344
           Z2          -0.01148  -0.00527   0.00504  -0.08649  -0.04715
           X3          -0.00464  -0.00387   0.00106  -0.02027   0.01233
           Y3           0.02261  -0.01460   0.01520  -0.01232  -0.00022
           Z3           0.01147  -0.00527   0.00504   0.01248  -0.00750
           X4          -0.01448  -0.00004  -0.00002  -0.20059  -0.10274
           Y4          -0.00004  -0.27063  -0.08692  -0.10401  -0.07184
           Z4          -0.00001  -0.05780  -0.05079   0.06543   0.03522
           X5          -0.00976   0.00000  -0.00000  -0.00338   0.00474
           Y5           0.00000  -0.00322  -0.02475   0.00418  -0.00681
           Z5          -0.00000  -0.01296  -0.03128   0.00963   0.00423
                          Z2        X3        Y3        Z3        X4
           Z2           0.08629
           X3          -0.01248   0.22882
           Y3          -0.00750  -0.10834   0.09352
           Z3           0.00631   0.08648  -0.04718   0.08629
           X4           0.09052  -0.20054   0.10278  -0.09050   0.42091
           Y4           0.04969   0.10406  -0.07192   0.04972  -0.00000
           Z4          -0.06361  -0.06542   0.03524  -0.06361   0.00001
           X5           0.01991  -0.00339  -0.00474  -0.01990  -0.00518
           Y5           0.01022  -0.00418  -0.00681   0.01022  -0.00000
           Z5          -0.03401  -0.00963   0.00423  -0.03401  -0.00000
                          Y4        Z4        X5        Y5        Z5
           Y4           0.42020
           Z4           0.00015   0.42760
           X5          -0.00000  -0.00000   0.02164
           Y5          -0.00568  -0.01283   0.00000   0.02245
           Z5          -0.01265  -0.24972   0.00000   0.01715   0.34911
 ITU=  0
     Eigenvalues ---    0.04445   0.04466   0.08241   0.08243   0.11631
     Eigenvalues ---    0.34515   0.64495   0.64554   0.66696
 Angle between quadratic step and forces=  54.45 degrees.
 Linear search not attempted -- first point.
 B after Tr=    -0.000001   -0.000058    0.000043
         Rot=    1.000000    0.000028    0.000002   -0.000000 Ang=   0.00 deg.
 Variable       Old X    -DE/DX   Delta X   Delta X   Delta X     New X
                                 (Linear)    (Quad)   (Total)
    X1        0.00032   0.00000   0.00000   0.00004   0.00003   0.00035
    Y1        2.03740  -0.00003   0.00000   0.00008   0.00012   2.03753
    Z1        1.87723  -0.00001   0.00000   0.00026   0.00019   1.87741
    X2       -1.68600   0.00001   0.00000   0.00001   0.00000  -1.68600
    Y2       -0.87744   0.00001   0.00000  -0.00011  -0.00006  -0.87750
    Z2        2.03189  -0.00003   0.00000  -0.00030  -0.00021   2.03168
    X3        1.68575  -0.00001   0.00000  -0.00001  -0.00002   1.68573
    Y3       -0.87799   0.00001   0.00000  -0.00007  -0.00001  -0.87801
    Z3        2.03186  -0.00003   0.00000  -0.00032  -0.00023   2.03163
    X4        0.00002  -0.00001   0.00000  -0.00003  -0.00003  -0.00001
    Y4        0.05536   0.00004   0.00000   0.00023   0.00024   0.05560
    Z4        1.26007   0.00015   0.00000   0.00027   0.00031   1.26038
    X5       -0.00001  -0.00000   0.00000   0.00001   0.00001   0.00000
    Y5       -0.07989  -0.00003   0.00000  -0.00017  -0.00030  -0.08018
    Z5       -1.32232  -0.00011   0.00000  -0.00010  -0.00005  -1.32238
         Item               Value     Threshold  Converged?
 Maximum Force            0.000149     0.000450     YES
 RMS     Force            0.000051     0.000300     YES
 Maximum Displacement     0.000308     0.001800     YES
 RMS     Displacement     0.000163     0.001200     YES
 Predicted change in Energy=-3.894724D-08
 Optimization completed.
    -- Stationary point found.
 GradGradGradGradGradGradGradGradGradGradGradGradGradGradGradGradGradGrad

 Leave Link  103 at Wed Apr 10 09:21:37 2024, MaxMem=   104857600 cpu:               0.0 elap:               0.0
 (Enter /opt/g16/l9999.exe)
 Unable to Open any file for archive entry.
 1\1\GINC-DESKTOP-1D9QDE1\Freq\External='python3 -u ../pes/h3co_pes.py'
 \ZDO\C1H3O1(2)\JH-LI\10-Apr-2024\0\\#p external="python3 -u ../pes/h3c
 o_pes.py" freq geom=allcheck\\CH3O\\0,2\H,0.0001692379,1.0781482843,0.
 9933853024\H,-0.8921932564,-0.4643224175,1.0752297486\H,0.8920596742,-
 0.4646144692,1.0752136169\C,0.0000109594,0.0292927046,0.666801093\O,-0
 .0000059602,-0.0422740302,-0.6997427181\\Version=ES64L-G16RevC.01\HF=-
 575.28701\S2=0.\S2-1=0.\S2A=0.\RMSD=0.000e+00\RMSF=5.103e-05\ZeroPoint
 =0.0358282\Thermal=0.0389537\ETot=-575.2480563\HTot=-575.2471121\GTot=
 -575.2741509\Dipole=0.,0.,0.\PG=C01 [X(C1H3O1)]\NImag=0\\0.03348971,0.
 00004270,0.30304618,0.00001434,0.08131108,0.07200051,-0.00464473,0.003
 86862,-0.00105158,0.22887373,-0.02261509,-0.01459734,0.01519624,0.1082
 9194,0.09344213,-0.01147505,-0.00526931,0.00503775,-0.08649260,-0.0471
 4871,0.08628754,-0.00463829,-0.00387240,0.00105678,-0.02026580,0.01233
 001,-0.01248345,0.22881832,0.02261220,-0.01460243,0.01519579,-0.012323
 59,-0.00021664,-0.00749828,-0.10833843,0.09351938,0.01147407,-0.005272
 65,0.00503765,0.01248138,-0.00750272,0.00630958,0.08647977,-0.04717600
 ,0.08628558,-0.01448348,-0.00003941,-0.00001550,-0.20058974,-0.1027411
 4,0.09051590,-0.20053703,0.10278417,-0.09050292,0.42090780,-0.00004058
 ,-0.27063125,-0.08691654,-0.10401434,-0.07184471,0.04968790,0.10405851
 ,-0.07192078,0.04971674,-0.00000291,0.42019743,-0.00001160,-0.05780228
 ,-0.05078918,0.06542929,0.03522304,-0.06361122,-0.06542059,0.03524286,
 -0.06360906,0.00000615,0.00015094,0.42760029,-0.00975748,0.00000076,-0
 .00000392,-0.00338407,0.00473962,0.01990603,-0.00338734,-0.00473994,-0
 .01990287,-0.00517755,-0.00000071,-0.00000350,0.02164133,0.00000107,-0
 .00321555,-0.02475077,0.00418408,-0.00681015,0.01021539,-0.00418470,-0
 .00680674,0.01022165,-0.00000071,-0.00568180,-0.01283095,0.00000026,0.
 02244954,-0.00000177,-0.01295806,-0.03127749,0.00962608,0.00423003,-0.
 03401121,-0.00962504,0.00423352,-0.03401132,-0.00000364,-0.01265190,-0
 .24971908,0.00000426,0.01715297,0.34911326\\-0.00000238,0.00002562,0.0
 0001394,-0.00000979,-0.00000571,0.00003117,0.00000704,-0.00000695,0.00
 002969,0.00000519,-0.00003557,-0.00014933,0.00000052,0.00003183,0.0001
 0733\\\@
 The archive entry for this job was punched.


 THE ... SCIENTISTS WERE WRONG ... THE MOST PERSISTENT PRINCIPLES 
 OF THE UNIVERSE WERE ACCIDENT AND ERROR.

                          -- FRANK HERBERT IN DUNE
 Job cpu time:       0 days  0 hours  0 minutes  0.4 seconds.
 Elapsed time:       0 days  0 hours  0 minutes  1.4 seconds.
 File lengths (MBytes):  RWF=      6 Int=      0 D2E=      0 Chk=      1 Scr=      1
 Normal termination of Gaussian 16 at Wed Apr 10 09:21:37 2024.
