 Entering Gaussian System, Link 0=g16
 Initial command:
 /opt/g16/l1.exe "/home/jh-li/scratch/g16/Gau-21699.inp" -scrdir="/home/jh-li/scratch/g16/"
 Entering Link 1 = /opt/g16/l1.exe PID=     21702.
  
 Copyright (c) 1988-2019, Gaussian, Inc.  All Rights Reserved.
  
 This is part of the Gaussian(R) 16 program.  It is based on
 the Gaussian(R) 09 system (copyright 2009, Gaussian, Inc.),
 the Gaussian(R) 03 system (copyright 2003, Gaussian, Inc.),
 the Gaussian(R) 98 system (copyright 1998, Gaussian, Inc.),
 the Gaussian(R) 94 system (copyright 1995, Gaussian, Inc.),
 the Gaussian 92(TM) system (copyright 1992, Gaussian, Inc.),
 the Gaussian 90(TM) system (copyright 1990, Gaussian, Inc.),
 the Gaussian 88(TM) system (copyright 1988, Gaussian, Inc.),
 the Gaussian 86(TM) system (copyright 1986, Carnegie Mellon
 University), and the Gaussian 82(TM) system (copyright 1983,
 Carnegie Mellon University). Gaussian is a federally registered
 trademark of Gaussian, Inc.
  
 This software contains proprietary and confidential information,
 including trade secrets, belonging to Gaussian, Inc.
  
 This software is provided under written license and may be
 used, copied, transmitted, or stored only in accord with that
 written license.
  
 The following legend is applicable only to US Government
 contracts under FAR:
  
                    RESTRICTED RIGHTS LEGEND
  
 Use, reproduction and disclosure by the US Government is
 subject to restrictions as set forth in subparagraphs (a)
 and (c) of the Commercial Computer Software - Restricted
 Rights clause in FAR 52.227-19.
  
 Gaussian, Inc.
 340 Quinnipiac St., Bldg. 40, Wallingford CT 06492
  
  
 ---------------------------------------------------------------
 Warning -- This program may not be used in any manner that
 competes with the business of Gaussian, Inc. or will provide
 assistance to any competitor of Gaussian, Inc.  The licensee
 of this program is prohibited from giving any competitor of
 Gaussian, Inc. access to this program.  By using this program,
 the user acknowledges that Gaussian, Inc. is engaged in the
 business of creating and licensing software in the field of
 computational chemistry and represents and warrants to the
 licensee that it is not a competitor of Gaussian, Inc. and that
 it will not use this program in any manner prohibited above.
 ---------------------------------------------------------------
  

 Cite this work as:
 Gaussian 16, Revision C.01,
 M. J. Frisch, G. W. Trucks, H. B. Schlegel, G. E. Scuseria, 
 M. A. Robb, J. R. Cheeseman, G. Scalmani, V. Barone, 
 G. A. Petersson, H. Nakatsuji, X. Li, M. Caricato, A. V. Marenich, 
 J. Bloino, B. G. Janesko, R. Gomperts, B. Mennucci, H. P. Hratchian, 
 J. V. Ortiz, A. F. Izmaylov, J. L. Sonnenberg, D. Williams-Young, 
 F. Ding, F. Lipparini, F. Egidi, J. Goings, B. Peng, A. Petrone, 
 T. Henderson, D. Ranasinghe, V. G. Zakrzewski, J. Gao, N. Rega, 
 G. Zheng, W. Liang, M. Hada, M. Ehara, K. Toyota, R. Fukuda, 
 J. Hasegawa, M. Ishida, T. Nakajima, Y. Honda, O. Kitao, H. Nakai, 
 T. Vreven, K. Throssell, J. A. Montgomery, Jr., J. E. Peralta, 
 F. Ogliaro, M. J. Bearpark, J. J. Heyd, E. N. Brothers, K. N. Kudin, 
 V. N. Staroverov, T. A. Keith, R. Kobayashi, J. Normand, 
 K. Raghavachari, A. P. Rendell, J. C. Burant, S. S. Iyengar, 
 J. Tomasi, M. Cossi, J. M. Millam, M. Klene, C. Adamo, R. Cammi, 
 J. W. Ochterski, R. L. Martin, K. Morokuma, O. Farkas, 
 J. B. Foresman, and D. J. Fox, Gaussian, Inc., Wallingford CT, 2019.
 
 ******************************************
 Gaussian 16:  ES64L-G16RevC.01  3-Jul-2019
                16-Mar-2024 
 ******************************************
 %nproc=1
 Will use up to    1 processors via shared memory.
 %oldchk=ts1-opt-freq.chk
 Copying data from "ts1-opt-freq.chk" to current chk file "/home/jh-li/scratch/g16/Gau-21702.chk"
 IOpt=  2 FromEx=T IUOpen= 4 IOptOp= 5 NList=   0 IFRang= 0 IUIn= 4 IUOut= 2.
 ----------------------------------------------------------------------
 #p external="python3 -u ../pes/h4cclo_pes.py" irc=(calcall,stepsize=3,
 maxpoint=100) geom=allcheck
 ----------------------------------------------------------------------
 1/6=10,10=4,18=10,26=1,29=7,38=1,39=3,42=100,44=3,71=1,172=1/1,23;
 2/12=2,29=1,40=1/2;
 3/11=9,14=-4,25=1,30=1,41=9900000,43=2,71=2,140=1/1;
 4/20=17,22=1002,24=3,113=1,114=1/2;
 6/7=2,8=2,9=2,10=2,18=1/1;
 7/25=1,44=-1/16;
 1/6=10,10=4,18=10,26=1,39=3,42=100,44=3,71=1/23(2);
 2/29=1/2;
 99/5=20/99;
 2/29=1/2;
 3/11=9,14=-2,25=1,30=1,41=9900000,43=2,71=2,140=1/1;
 4/16=2,20=17,22=1002,24=3,113=1,114=1/2;
 7/25=1,44=-1/16;
 1/6=10,10=4,18=10,26=1,39=3,42=100,44=3,71=1/23(-4);
 2/29=1/2;
 6/7=2,8=2,9=2,10=2,18=1/1;
 99/5=20/99;
 Leave Link    1 at Sat Mar 16 10:37:18 2024, MaxMem=   104857600 cpu:               0.0 elap:               0.0
 (Enter /opt/g16/l101.exe)
 Structure from the checkpoint file:  "/home/jh-li/scratch/g16/Gau-21702.chk"
 ------------------------
 Cl + CH3OH -> HCl + CH3O
 ------------------------
 Charge =  0 Multiplicity = 2
 Redundant internal coordinates found in file.  (old form).
 H,0,-0.5456611639,-0.3350971863,-0.0040817623
 H,0,1.0223145866,0.9985563759,1.9016118392
 H,0,0.2158520937,-0.2456942683,2.8535491432
 H,0,1.1999092538,-0.7548384028,1.4473535702
 C,0,0.5479215019,0.0165115375,1.8396859703
 Cl,0,0.0751929646,-0.0547720399,-1.282022148
 O,0,-0.6609745967,0.098110084,1.1294264273
 Recover connectivity data from disk.
 ITRead=  0  0  0  0  0  0  0
 MicOpt= -1 -1 -1 -1 -1 -1 -1
 NAtoms=      7 NQM=        7 NQMF=       0 NMMI=      0 NMMIF=      0
                NMic=       0 NMicF=      0.
                    Isotopes and Nuclear Properties:
 (Nuclear quadrupole moments (NQMom) in fm**2, nuclear magnetic moments (NMagM)
  in nuclear magnetons)

  Atom         1           2           3           4           5           6           7
 IAtWgt=           1           1           1           1          12          35          16
 AtmWgt=   1.0078250   1.0078250   1.0078250   1.0078250  12.0000000  34.9688527  15.9949146
 NucSpn=           1           1           1           1           0           3           0
 AtZEff=   1.0000000   1.0000000   1.0000000   1.0000000   3.6000000  14.2400000   5.6000000
 NQMom=    0.0000000   0.0000000   0.0000000   0.0000000   0.0000000  -8.1650000   0.0000000
 NMagM=    2.7928460   2.7928460   2.7928460   2.7928460   0.0000000   0.8218740   0.0000000
 AtZNuc=   1.0000000   1.0000000   1.0000000   1.0000000   6.0000000  17.0000000   8.0000000
 Leave Link  101 at Sat Mar 16 10:37:18 2024, MaxMem=   104857600 cpu:               0.2 elap:               0.2
 (Enter /opt/g16/l123.exe)
 IRC-IRC-IRC-IRC-IRC-IRC-IRC-IRC-IRC-IRC-IRC-IRC-IRC-IRC-IRC-IRC-IRC-IRC
 ------------------------------------------------------------------------
 INPUT DATA FOR L123
 ------------------------------------------------------------------------
 GENERAL PARAMETERS:
 Follow reaction path in both directions.
 Maximum points per path      = 100
 Step size                    =   0.030 bohr
 Integration scheme           = HPC                                 
    Redo corrector integration= Yes                                 
    DWI Weight Power          =  2
    DWI will use Hessian update vectors when possible.
    Max correction cycles     =  10
 Initial Hessian              = CalcFC
 Hessian evaluation           = Analytic at all predictor steps
                              = Update at all corrector steps
 Hessian updating method      = Bofill                              
 ------------------------------------------------------------------------
 IRC-IRC-IRC-IRC-IRC-IRC-IRC-IRC-IRC-IRC-IRC-IRC-IRC-IRC-IRC-IRC-IRC-IRC
 Leave Link  123 at Sat Mar 16 10:37:18 2024, MaxMem=   104857600 cpu:               0.0 elap:               0.0
 (Enter /opt/g16/l202.exe)
                          Input orientation:                          
 ---------------------------------------------------------------------
 Center     Atomic      Atomic             Coordinates (Angstroms)
 Number     Number       Type             X           Y           Z
 ---------------------------------------------------------------------
      1          1           0       -0.545661   -0.335097   -0.004082
      2          1           0        1.022315    0.998556    1.901612
      3          1           0        0.215852   -0.245694    2.853549
      4          1           0        1.199909   -0.754838    1.447354
      5          6           0        0.547922    0.016512    1.839686
      6         17           0        0.075193   -0.054772   -1.282022
      7          8           0       -0.660975    0.098110    1.129426
 ---------------------------------------------------------------------
                    Distance matrix (angstroms):
                    1          2          3          4          5
     1  H    0.000000
     2  H    2.805147   0.000000
     3  H    2.958707   1.762023   0.000000
     4  H    2.308650   1.819968   1.790246   0.000000
     5  C    2.172333   1.092381   1.098608   1.083510   0.000000
     6  Cl   1.448162   3.484547   4.142365   3.033904   3.158103
     7  O    1.218937   2.059256   1.964593   2.071591   1.404477
                    6          7
     6  Cl   0.000000
     7  O    2.525945   0.000000
 Symmetry turned off by external request.
 Stoichiometry    CH4ClO(2)
 Framework group  C1[X(CH4ClO)]
 Deg. of freedom    15
 Full point group                 C1      NOp   1
 Rotational constants (GHZ):          32.6737695           3.7609485           3.4547680
 Leave Link  202 at Sat Mar 16 10:37:18 2024, MaxMem=   104857600 cpu:               0.0 elap:               0.0
 (Enter /opt/g16/l301.exe)
 Standard basis: STO-3G (5D, 7F)
 Ernie: Thresh=  0.10000D-02 Tol=  0.10000D-05 Strict=F.
    23 basis functions,    69 primitive gaussians,    23 cartesian basis functions
    18 alpha electrons       17 beta electrons
       nuclear repulsion energy        98.9980239099 Hartrees.
 IExCor=    0 DFT=F Ex=HF Corr=None ExCW=0 ScaHFX=  1.000000
 ScaDFX=  1.000000  1.000000  1.000000  1.000000 ScalE2=  1.000000  1.000000
 IRadAn=      5 IRanWt=     -1 IRanGd=            0 ICorTp=0 IEmpDi=  4
 NAtoms=    7 NActive=    7 NUniq=    7 SFac= 1.00D+00 NAtFMM=   60 NAOKFM=F Big=F
 Integral buffers will be    131072 words long.
 Raffenetti 2 integral format.
 Two-electron integral symmetry is turned off.
 Leave Link  301 at Sat Mar 16 10:37:18 2024, MaxMem=   104857600 cpu:               0.1 elap:               0.0
 (Enter /opt/g16/l402.exe)
 External calculation of energy, first and second derivatives.
 Running external command "python3 -u ../pes/h4cclo_pes.py R"
         input file       "/home/jh-li/scratch/g16/Gau-21702.EIn"
         output file      "/home/jh-li/scratch/g16/Gau-21702.EOu"
         message file     "/home/jh-li/scratch/g16/Gau-21702.EMs"
         fchk file        "/home/jh-li/scratch/g16/Gau-21702.EFC"
         mat. el file     "/home/jh-li/scratch/g16/Gau-21702.EUF"
 Recovered energy= -575.280075204     dipole=      0.000000000000      0.000000000000      0.000000000000
 NRF= 0 NRA=   0 NVA=   0 HaveQM=F NVQ=       0
 Convergence limit is  0.750E-04 MaxStp= 10000 StMxLn= 3.00D-04 StpMin= 1.00D-06.
 Convergence criteria             0.00011250 0.00007500 0.00045000 0.00030000
  Step  NS  ND Rises OKQ   Scale  Max. Force  RMS Force Max. Disp.  RMS Disp.     Energy   Flag
     1   0   0   F    T  1.00D+00 0.00000000 0.00000000 0.00000000 0.00000000 -575.2800752 ====
 Running external command "python3 -u ../pes/h4cclo_pes.py R"
         input file       "/home/jh-li/scratch/g16/Gau-21702.EIn"
         output file      "/home/jh-li/scratch/g16/Gau-21702.EOu"
         message file     "/home/jh-li/scratch/g16/Gau-21702.EMs"
         fchk file        "/home/jh-li/scratch/g16/Gau-21702.EFC"
         mat. el file     "/home/jh-li/scratch/g16/Gau-21702.EUF"
 Recovered energy= -575.280075204     dipole=      0.000000000000      0.000000000000      0.000000000000
 Energy=    -575.280075     NIter=   0.
 Dipole moment=       0.000000       0.000000       0.000000
 Leave Link  402 at Sat Mar 16 10:37:19 2024, MaxMem=   104857600 cpu:               0.0 elap:               1.0
 (Enter /opt/g16/l601.exe)
 Leave Link  601 at Sat Mar 16 10:37:19 2024, MaxMem=   104857600 cpu:               0.0 elap:               0.0
 (Enter /opt/g16/l716.exe)
 Dipole        = 0.00000000D+00 0.00000000D+00 0.00000000D+00
 -------------------------------------------------------------------
 Center     Atomic                   Forces (Hartrees/Bohr)
 Number     Number              X              Y              Z
 -------------------------------------------------------------------
      1        1          -0.000003407   -0.000003465    0.000008723
      2        1          -0.000004627    0.000000286   -0.000002560
      3        1           0.000004379    0.000001522    0.000004315
      4        1          -0.000000504    0.000001105   -0.000002103
      5        6           0.000007626    0.000013883   -0.000003125
      6       17          -0.000008034   -0.000004461   -0.000009689
      7        8          -0.000007287   -0.000005407    0.000004115
 -------------------------------------------------------------------
 Cartesian Forces:  Max     0.000013883 RMS     0.000005823
 Force constants in Cartesian coordinates: 
                1             2             3             4             5 
      1  0.412911D-01
      2  0.195809D-01  0.365033D-01
      3  0.180936D-01 -0.146249D-01 -0.697194D-01
      4  0.212440D-02 -0.318477D-03 -0.769111D-02  0.112836D+00
      5 -0.173332D-03 -0.847729D-03 -0.137652D-02  0.113626D+00  0.295272D+00
      6 -0.605829D-02 -0.380547D-03  0.858905D-03  0.119369D-01  0.134164D-01
      7  0.310250D-03  0.239172D-02 -0.983293D-02 -0.335360D-02 -0.542173D-02
      8 -0.306107D-02  0.533204D-03  0.213517D-02 -0.578058D-02 -0.817090D-02
      9 -0.337935D-02  0.301166D-02  0.173689D-02 -0.466648D-03 -0.861212D-03
     10  0.429428D-02 -0.130197D-02 -0.524176D-02  0.134229D-01 -0.158059D-01
     11 -0.241885D-02  0.378021D-02  0.535956D-03  0.235826D-01 -0.144693D-01
     12  0.724228D-03  0.577087D-03 -0.401285D-02 -0.268537D-03  0.619725D-02
     13  0.251531D-02  0.170524D-02 -0.504903D-02 -0.995280D-01 -0.821473D-01
     14 -0.558063D-02 -0.284435D-02  0.213671D-03 -0.107291D+00 -0.280494D+00
     15  0.962357D-04  0.162004D-02 -0.202473D-01 -0.299603D-02 -0.166064D-01
     16 -0.231767D-01 -0.230752D-01  0.109403D-02 -0.167341D-02 -0.266211D-02
     17 -0.603999D-02 -0.162030D-01 -0.786883D-02 -0.204290D-02  0.155353D-02
     18  0.326165D-01  0.472576D-01 -0.193743D-01  0.252302D-02  0.115793D-01
     19 -0.273381D-01  0.101454D-02  0.860420D-02 -0.238078D-01 -0.743367D-02
     20 -0.231535D-02 -0.209163D-01  0.209867D-01 -0.217551D-01  0.719209D-02
     21 -0.421192D-01 -0.374517D-01  0.110803D+00 -0.303833D-02 -0.123384D-01
                6             7             8             9            10 
      6  0.501751D-01
      7  0.132079D-01  0.855030D-01
      8  0.284947D-01  0.185354D-01  0.614235D-01
      9  0.980030D-03 -0.785641D-01 -0.651103D-01  0.296569D+00
     10 -0.612546D-02 -0.428624D-02  0.476799D-02  0.305939D-03  0.168879D+00
     11 -0.831387D-02 -0.104372D-01  0.733060D-02  0.783770D-02 -0.131948D+00
     12 -0.797402D-03  0.186022D-01 -0.239536D-01 -0.426184D-02 -0.646042D-01
     13  0.731895D-02 -0.796105D-01 -0.166380D-01  0.957801D-01 -0.150001D+00
     14 -0.150596D-01 -0.751010D-02 -0.551973D-01  0.525570D-01  0.123307D+00
     15 -0.354101D-01  0.834163D-01  0.598714D-01 -0.262480D+00  0.640055D-01
     16  0.206763D-03  0.149187D-02  0.899466D-03 -0.184713D-02 -0.144414D-02
     17 -0.548933D-03 -0.208728D-02 -0.263928D-03  0.443738D-03 -0.123334D-02
     18  0.664882D-03 -0.639073D-02 -0.570305D-03  0.539774D-02  0.298145D-02
     19 -0.205024D-01 -0.219606D-04  0.127725D-02 -0.118492D-01 -0.308412D-01
     20 -0.175983D-01  0.452293D-02 -0.566493D-02  0.211687D-02  0.222015D-01
     21 -0.164747D-01 -0.204385D-01 -0.873932D-03 -0.379093D-01  0.868368D-02
               11            12            13            14            15 
     11  0.208284D+00
     12  0.844501D-01  0.969823D-01
     13  0.116070D+00  0.719388D-01  0.527729D+00
     14 -0.198855D+00 -0.863864D-01 -0.335860D-01  0.576434D+00
     15 -0.882385D-01 -0.898119D-01 -0.975155D-01  0.533363D-01  0.467609D+00
     16  0.922463D-03 -0.168142D-02  0.359119D-03  0.316707D-02  0.652267D-03
     17 -0.127651D-02  0.455245D-03 -0.162896D-02 -0.497128D-03 -0.431009D-02
     18 -0.302377D-02 -0.970251D-03 -0.311800D-02 -0.845960D-02 -0.206113D-01
     19  0.424031D-02 -0.247203D-01 -0.201593D+00  0.274990D-01 -0.476240D-01
     20 -0.478191D-02  0.186620D-01  0.162368D-01 -0.385582D-01 -0.567548D-02
     21  0.674676D-02  0.287667D-02 -0.693730D-01  0.380143D-02 -0.390691D-01
               16            17            18            19            20 
     16  0.279904D-01
     17  0.780803D-02  0.536959D-02
     18 -0.498468D-01 -0.175302D-01  0.130446D+00
     19 -0.355153D-02  0.522017D-02  0.212280D-01  0.287189D+00
     20  0.129417D-01  0.113180D-01 -0.292489D-01 -0.318249D-01  0.513777D-01
     21  0.514354D-01  0.293596D-01 -0.955612D-01  0.748899D-01  0.107467D-01
               21 
     21  0.752851D-01
 Leave Link  716 at Sat Mar 16 10:37:19 2024, MaxMem=   104857600 cpu:               0.0 elap:               0.0
 (Enter /opt/g16/l123.exe)
 IRC-IRC-IRC-IRC-IRC-IRC-IRC-IRC-IRC-IRC-IRC-IRC-IRC-IRC-IRC-IRC-IRC-IRC
          ******** Start new reaction path calculation ********
 Current Structure is TS -> form Hessian eigenvectors.
                            Diagonalizing Hessian.
 Supplied step size of   0.0300 bohr.
    Integration on MW PES will use step size of   0.0315 sqrt(amu)*bohr.
 Point Number:   0          Path Number:   1
 Calculating another point on the path.
 Point Number  1 in FORWARD path direction.
 Using LQA Reaction Path Following.
 IRC-IRC-IRC-IRC-IRC-IRC-IRC-IRC-IRC-IRC-IRC-IRC-IRC-IRC-IRC-IRC-IRC-IRC
 Leave Link  123 at Sat Mar 16 10:37:19 2024, MaxMem=   104857600 cpu:               0.0 elap:               0.0
 (Enter /opt/g16/l202.exe)
                          Input orientation:                          
 ---------------------------------------------------------------------
 Center     Atomic      Atomic             Coordinates (Angstroms)
 Number     Number       Type             X           Y           Z
 ---------------------------------------------------------------------
      1          1           0       -0.550738   -0.329704   -0.042698
      2          1           0        1.013562    1.005971    1.878764
      3          1           0        0.207081   -0.238097    2.830365
      4          1           0        1.191298   -0.747572    1.423631
      5          6           0        0.539757    0.023804    1.816300
      6         17           0        0.067132   -0.047553   -1.305331
      7          8           0       -0.668986    0.105598    1.107391
 ---------------------------------------------------------------------
                    Distance matrix (angstroms):
                    1          2          3          4          5
     1  H    0.000000
     2  H    2.814796   0.000000
     3  H    2.972739   1.761721   0.000000
     4  H    2.315042   1.820343   1.790851   0.000000
     5  C    2.184037   1.092265   1.098906   1.083382   0.000000
     6  Cl   1.433741   3.484839   4.142448   3.033316   3.158013
     7  O    1.235385   2.058313   1.963227   2.070884   1.403674
                    6          7
     6  Cl   0.000000
     7  O    2.527163   0.000000
 Symmetry turned off by external request.
 Stoichiometry    CH4ClO(2)
 Framework group  C1[X(CH4ClO)]
 Deg. of freedom    15
 Full point group                 C1      NOp   1
 Rotational constants (GHZ):          32.6892908           3.7596661           3.4539015
 Leave Link  202 at Sat Mar 16 10:37:19 2024, MaxMem=   104857600 cpu:               0.0 elap:               0.0
 (Enter /opt/g16/l301.exe)
 Standard basis: STO-3G (5D, 7F)
 Ernie: Thresh=  0.10000D-02 Tol=  0.10000D-05 Strict=F.
    23 basis functions,    69 primitive gaussians,    23 cartesian basis functions
    18 alpha electrons       17 beta electrons
       nuclear repulsion energy        99.0046390003 Hartrees.
 IExCor=    0 DFT=F Ex=HF Corr=None ExCW=0 ScaHFX=  1.000000
 ScaDFX=  1.000000  1.000000  1.000000  1.000000 ScalE2=  1.000000  1.000000
 IRadAn=      5 IRanWt=     -1 IRanGd=            0 ICorTp=0 IEmpDi=  4
 NAtoms=    7 NActive=    7 NUniq=    7 SFac= 1.00D+00 NAtFMM=   60 NAOKFM=F Big=F
 Integral buffers will be    131072 words long.
 Raffenetti 2 integral format.
 Two-electron integral symmetry is turned off.
 Leave Link  301 at Sat Mar 16 10:37:19 2024, MaxMem=   104857600 cpu:               0.1 elap:               0.0
 (Enter /opt/g16/l402.exe)
 External calculation of energy, first and second derivatives.
 Running external command "python3 -u ../pes/h4cclo_pes.py R"
         input file       "/home/jh-li/scratch/g16/Gau-21702.EIn"
         output file      "/home/jh-li/scratch/g16/Gau-21702.EOu"
         message file     "/home/jh-li/scratch/g16/Gau-21702.EMs"
         fchk file        "/home/jh-li/scratch/g16/Gau-21702.EFC"
         mat. el file     "/home/jh-li/scratch/g16/Gau-21702.EUF"
 Recovered energy= -575.280115672     dipole=      0.000000000000      0.000000000000      0.000000000000
 NRF= 0 NRA=   0 NVA=   0 HaveQM=F NVQ=       0
 Convergence limit is  0.750E-04 MaxStp= 10000 StMxLn= 3.00D-04 StpMin= 1.00D-06.
 Convergence criteria             0.00011250 0.00007500 0.00045000 0.00030000
  Step  NS  ND Rises OKQ   Scale  Max. Force  RMS Force Max. Disp.  RMS Disp.     Energy   Flag
     1   0   0   F    T  1.00D+00 0.00000000 0.00000000 0.00000000 0.00000000 -575.2801157 ====
 Running external command "python3 -u ../pes/h4cclo_pes.py R"
         input file       "/home/jh-li/scratch/g16/Gau-21702.EIn"
         output file      "/home/jh-li/scratch/g16/Gau-21702.EOu"
         message file     "/home/jh-li/scratch/g16/Gau-21702.EMs"
         fchk file        "/home/jh-li/scratch/g16/Gau-21702.EFC"
         mat. el file     "/home/jh-li/scratch/g16/Gau-21702.EUF"
 Recovered energy= -575.280115672     dipole=      0.000000000000      0.000000000000      0.000000000000
 Energy=    -575.280116     NIter=   0.
 Dipole moment=       0.000000       0.000000       0.000000
 Leave Link  402 at Sat Mar 16 10:37:20 2024, MaxMem=   104857600 cpu:               0.0 elap:               1.1
 (Enter /opt/g16/l716.exe)
 Dipole        = 0.00000000D+00 0.00000000D+00 0.00000000D+00
 -------------------------------------------------------------------
 Center     Atomic                   Forces (Hartrees/Bohr)
 Number     Number              X              Y              Z
 -------------------------------------------------------------------
      1        1           0.000403536   -0.000352140   -0.002267659
      2        1          -0.000110517    0.000006336    0.000054587
      3        1          -0.000081695    0.000050224    0.000008534
      4        1          -0.000080831    0.000001291   -0.000077775
      5        6          -0.000232756    0.000047035   -0.000234346
      6       17           0.000040352   -0.000295239   -0.000581516
      7        8           0.000049261    0.000546078    0.003099191
 -------------------------------------------------------------------
 Cartesian Forces:  Max     0.003099191 RMS     0.000870415
 Force constants in Cartesian coordinates: 
                1             2             3             4             5 
      1  0.412372D-01
      2  0.203456D-01  0.353110D-01
      3  0.125337D-01 -0.171858D-01 -0.554934D-01
      4  0.216654D-02 -0.353816D-04 -0.719495D-02  0.112913D+00
      5  0.557320D-04 -0.887596D-03 -0.230977D-02  0.113664D+00  0.295599D+00
      6 -0.578841D-02 -0.254938D-03  0.358606D-03  0.120344D-01  0.136548D-01
      7 -0.385042D-04  0.253815D-02 -0.789089D-02 -0.324904D-02 -0.567815D-02
      8 -0.308572D-02  0.498062D-03  0.192418D-02 -0.554342D-02 -0.829509D-02
      9 -0.322455D-02  0.304334D-02  0.136147D-02 -0.516257D-03 -0.806626D-03
     10  0.397598D-02 -0.107690D-02 -0.465707D-02  0.135287D-01 -0.161740D-01
     11 -0.253705D-02  0.373404D-02  0.630371D-03  0.237466D-01 -0.143245D-01
     12  0.743442D-03  0.735149D-03 -0.396878D-02 -0.250677D-03  0.624476D-02
     13  0.321381D-02  0.139049D-02 -0.630082D-02 -0.100044D+00 -0.816710D-01
     14 -0.481508D-02 -0.269238D-02  0.660461D-03 -0.107741D+00 -0.280557D+00
     15  0.531409D-03  0.124299D-02 -0.172894D-01 -0.320967D-02 -0.171976D-01
     16 -0.257479D-01 -0.236426D-01  0.754003D-02 -0.164020D-02 -0.283000D-02
     17 -0.698940D-02 -0.167775D-01 -0.492989D-02 -0.206781D-02  0.145140D-02
     18  0.375988D-01  0.483226D-01 -0.337549D-01  0.235472D-02  0.120031D-01
     19 -0.247863D-01  0.477708D-03  0.594740D-02 -0.236539D-01 -0.738553D-02
     20 -0.298202D-02 -0.191802D-01  0.212106D-01 -0.220018D-01  0.704988D-02
     21 -0.424181D-01 -0.358955D-01  0.108814D+00 -0.321807D-02 -0.115778D-01
                6             7             8             9            10 
      6  0.497977D-01
      7  0.135164D-01  0.852225D-01
      8  0.284388D-01  0.183433D-01  0.610079D-01
      9  0.852257D-03 -0.785640D-01 -0.650209D-01  0.296281D+00
     10 -0.635393D-02 -0.412675D-02  0.452462D-02  0.118540D-03  0.169211D+00
     11 -0.815058D-02 -0.106328D-01  0.728622D-02  0.802725D-02 -0.132053D+00
     12 -0.984870D-03  0.188752D-01 -0.238955D-01 -0.424341D-02 -0.646365D-01
     13  0.687890D-02 -0.793799D-01 -0.163460D-01  0.956981D-01 -0.150564D+00
     14 -0.154303D-01 -0.668273D-02 -0.541825D-01  0.521916D-01  0.124015D+00
     15 -0.342972D-01  0.822919D-01  0.597833D-01 -0.262120D+00  0.645198D-01
     16  0.938983D-04  0.185990D-02  0.889612D-03 -0.197492D-02 -0.126565D-02
     17 -0.645820D-03 -0.192015D-02 -0.266065D-03  0.339346D-03 -0.126299D-02
     18  0.874839D-03 -0.714592D-02 -0.461115D-03  0.575332D-02  0.257343D-02
     19 -0.203970D-01 -0.254249D-03  0.121797D-02 -0.115577D-01 -0.307346D-01
     20 -0.176018D-01  0.402572D-02 -0.605938D-02  0.222140D-02  0.220151D-01
     21 -0.166047D-01 -0.210829D-01 -0.775854D-03 -0.378511D-01  0.844089D-02
               11            12            13            14            15 
     11  0.208447D+00
     12  0.847449D-01  0.969364D-01
     13  0.116247D+00  0.715729D-01  0.528025D+00
     14 -0.198899D+00 -0.869229D-01 -0.350031D-01  0.574497D+00
     15 -0.889126D-01 -0.891138D-01 -0.967809D-01  0.545716D-01  0.462098D+00
     16  0.894148D-03 -0.168823D-02  0.283358D-03  0.312554D-02  0.131562D-02
     17 -0.123882D-02  0.382744D-03 -0.175077D-02 -0.529748D-03 -0.393210D-02
     18 -0.297844D-02 -0.121575D-02 -0.334493D-02 -0.857062D-02 -0.216782D-01
     19  0.434688D-02 -0.246250D-01 -0.201667D+00  0.271076D-01 -0.486328D-01
     20 -0.499204D-02  0.187126D-01  0.171449D-01 -0.376450D-01 -0.555870D-02
     21  0.663330D-02  0.259415D-02 -0.677462D-01  0.350394D-02 -0.376206D-01
               16            17            18            19            20 
     16  0.307097D-01
     17  0.899902D-02  0.595445D-02
     18 -0.554886D-01 -0.201174D-01  0.142006D+00
     19 -0.420361D-02  0.498770D-02  0.234456D-01  0.285336D+00
     20  0.125654D-01  0.114066D-01 -0.281935D-01 -0.307600D-01  0.493849D-01
     21  0.502123D-01  0.289021D-01 -0.919848D-01  0.758518D-01  0.920080D-02
               21 
     21  0.726113D-01
 Leave Link  716 at Sat Mar 16 10:37:20 2024, MaxMem=   104857600 cpu:               0.0 elap:               0.0
 (Enter /opt/g16/l123.exe)
 IRC-IRC-IRC-IRC-IRC-IRC-IRC-IRC-IRC-IRC-IRC-IRC-IRC-IRC-IRC-IRC-IRC-IRC
 Pt  1 Step number   1 out of a maximum of  10
 Using modified Bulirsch-Stoer corrector integration.
   Using distance weighted interpolants to fit PES.
 PreDWI: IReCr0= 2 IReCr1= 1 IReCr2= 1 IReCr3= 1
 Modified Bulirsch-Stoer Extrapolation Cycles:
    EPS =    0.000010000000000
    Cycle     1 NS=    48
      PEZero:  N= 2 I= 1 D=  8.19D-05 Err=  2.25D-04
    Cycle     2 NS=    64 Truncation Error =  0.000224965
      PEZero:  N= 3 I= 2 D=  8.19D-05 Err=  1.50D-04
      PEZero:  N= 3 I= 1 D=  1.64D-04 Err=  1.63D-08
    Cycle     3 NS=    96 Truncation Error =  0.000000016
 BS completed in    3 cycles and     208 integration steps.
 Maximum DWI energy   std dev =  0.000000099 at pt    46
 Maximum DWI gradient std dev =  0.010051438 at pt    20
 SUMMARY OF CORRECTOR INTEGRATION:
   Predictor End Point Energy =  -575.280116
   Old End Point Energy       =  -575.280116
   Corrected End Point Energy =  -575.280116
   Predictor End-Start Dist.  =     0.031466
   Old End-Start Dist.        =     0.031466
   New End-Start Dist.        =     0.031463
   New End-Old End Dist.      =     0.000384
 CORRECTOR INTEGRATION CONVERGENCE:
   Recorrection delta-x convergence threshold:    0.010000
   Delta-x Convergence Met
 Point Number:   1          Path Number:   1
                    CURRENT STRUCTURE
                Cartesian Coordinates (Ang):                
 ---------------------------------------------------------------------
 Center     Atomic                     Coordinates (Angstroms)
 Number     Number                        X           Y           Z
 ---------------------------------------------------------------------
      1          1                   -0.550795   -0.329822   -0.042657
      2          1                    1.013552    1.005963    1.878752
      3          1                    0.207131   -0.238092    2.830376
      4          1                    1.191298   -0.747562    1.423616
      5          6                    0.539754    0.023809    1.816301
      6         17                    0.067135   -0.047553   -1.305344
      7          8                   -0.668993    0.105603    1.107417
 ---------------------------------------------------------------------
   CHANGE IN THE REACTION COORDINATE =    0.03146
   NET REACTION COORDINATE UP TO THIS POINT =    0.03146
  # OF POINTS ALONG THE PATH =   1
  # OF STEPS =   1

 Calculating another point on the path.
 Point Number  2 in FORWARD path direction.
 Using LQA Reaction Path Following.
   LQA: T_Est iteration completed in    3 iterations.
 IRC-IRC-IRC-IRC-IRC-IRC-IRC-IRC-IRC-IRC-IRC-IRC-IRC-IRC-IRC-IRC-IRC-IRC
 Leave Link  123 at Sat Mar 16 10:37:20 2024, MaxMem=   104857600 cpu:               0.0 elap:               0.0
 (Enter /opt/g16/l202.exe)
                          Input orientation:                          
 ---------------------------------------------------------------------
 Center     Atomic      Atomic             Coordinates (Angstroms)
 Number     Number       Type             X           Y           Z
 ---------------------------------------------------------------------
      1          1           0       -0.548046   -0.332148   -0.057848
      2          1           0        1.012857    1.006069    1.879121
      3          1           0        0.206575   -0.237774    2.830474
      4          1           0        1.190744   -0.747538    1.423095
      5          6           0        0.539623    0.023826    1.816169
      6         17           0        0.067146   -0.047610   -1.305463
      7          8           0       -0.668981    0.105835    1.108738
 ---------------------------------------------------------------------
                    Distance matrix (angstroms):
                    1          2          3          4          5
     1  H    0.000000
     2  H    2.824729   0.000000
     3  H    2.986765   1.761337   0.000000
     4  H    2.321451   1.820643   1.791414   0.000000
     5  C    2.195833   1.092114   1.099169   1.083267   0.000000
     6  Cl   1.419847   3.485138   4.142654   3.032723   3.157994
     7  O    1.251950   2.057302   1.961897   2.070180   1.402822
                    6          7
     6  Cl   0.000000
     7  O    2.528595   0.000000
 Symmetry turned off by external request.
 Stoichiometry    CH4ClO(2)
 Framework group  C1[X(CH4ClO)]
 Deg. of freedom    15
 Full point group                 C1      NOp   1
 Rotational constants (GHZ):          32.7019449           3.7580400           3.4527263
 Leave Link  202 at Sat Mar 16 10:37:20 2024, MaxMem=   104857600 cpu:               0.0 elap:               0.0
 (Enter /opt/g16/l301.exe)
 Standard basis: STO-3G (5D, 7F)
 Ernie: Thresh=  0.10000D-02 Tol=  0.10000D-05 Strict=F.
    23 basis functions,    69 primitive gaussians,    23 cartesian basis functions
    18 alpha electrons       17 beta electrons
       nuclear repulsion energy        99.0090877076 Hartrees.
 IExCor=    0 DFT=F Ex=HF Corr=None ExCW=0 ScaHFX=  1.000000
 ScaDFX=  1.000000  1.000000  1.000000  1.000000 ScalE2=  1.000000  1.000000
 IRadAn=      5 IRanWt=     -1 IRanGd=            0 ICorTp=0 IEmpDi=  4
 NAtoms=    7 NActive=    7 NUniq=    7 SFac= 1.00D+00 NAtFMM=   60 NAOKFM=F Big=F
 Integral buffers will be    131072 words long.
 Raffenetti 2 integral format.
 Two-electron integral symmetry is turned off.
 Leave Link  301 at Sat Mar 16 10:37:20 2024, MaxMem=   104857600 cpu:               0.1 elap:               0.1
 (Enter /opt/g16/l402.exe)
 External calculation of energy, first and second derivatives.
 Running external command "python3 -u ../pes/h4cclo_pes.py R"
         input file       "/home/jh-li/scratch/g16/Gau-21702.EIn"
         output file      "/home/jh-li/scratch/g16/Gau-21702.EOu"
         message file     "/home/jh-li/scratch/g16/Gau-21702.EMs"
         fchk file        "/home/jh-li/scratch/g16/Gau-21702.EFC"
         mat. el file     "/home/jh-li/scratch/g16/Gau-21702.EUF"
 Recovered energy= -575.280227095     dipole=      0.000000000000      0.000000000000      0.000000000000
 NRF= 0 NRA=   0 NVA=   0 HaveQM=F NVQ=       0
 Convergence limit is  0.750E-04 MaxStp= 10000 StMxLn= 3.00D-04 StpMin= 1.00D-06.
 Convergence criteria             0.00011250 0.00007500 0.00045000 0.00030000
  Step  NS  ND Rises OKQ   Scale  Max. Force  RMS Force Max. Disp.  RMS Disp.     Energy   Flag
     1   0   0   F    T  1.00D+00 0.00000000 0.00000000 0.00000000 0.00000000 -575.2802271 ====
 Running external command "python3 -u ../pes/h4cclo_pes.py R"
         input file       "/home/jh-li/scratch/g16/Gau-21702.EIn"
         output file      "/home/jh-li/scratch/g16/Gau-21702.EOu"
         message file     "/home/jh-li/scratch/g16/Gau-21702.EMs"
         fchk file        "/home/jh-li/scratch/g16/Gau-21702.EFC"
         mat. el file     "/home/jh-li/scratch/g16/Gau-21702.EUF"
 Recovered energy= -575.280227095     dipole=      0.000000000000      0.000000000000      0.000000000000
 Energy=    -575.280227     NIter=   0.
 Dipole moment=       0.000000       0.000000       0.000000
 Leave Link  402 at Sat Mar 16 10:37:21 2024, MaxMem=   104857600 cpu:               0.1 elap:               1.0
 (Enter /opt/g16/l716.exe)
 Dipole        = 0.00000000D+00 0.00000000D+00 0.00000000D+00
 -------------------------------------------------------------------
 Center     Atomic                   Forces (Hartrees/Bohr)
 Number     Number              X              Y              Z
 -------------------------------------------------------------------
      1        1           0.000694566   -0.000713585   -0.004088101
      2        1          -0.000187699    0.000015654    0.000098543
      3        1          -0.000126218    0.000086019    0.000024085
      4        1          -0.000146578    0.000007703   -0.000147718
      5        6          -0.000470195    0.000059462   -0.000407063
      6       17           0.000231559   -0.000520228   -0.001470621
      7        8          -0.000008879    0.001068663    0.005992692
 -------------------------------------------------------------------
 Cartesian Forces:  Max     0.005992692 RMS     0.001658290
 Force constants in Cartesian coordinates: 
                1             2             3             4             5 
      1  0.415015D-01
      2  0.211435D-01  0.342553D-01
      3  0.610889D-02 -0.196729D-01 -0.391040D-01
      4  0.216630D-02  0.228000D-03 -0.660797D-02  0.113008D+00
      5  0.269568D-03 -0.897494D-03 -0.311627D-02  0.113714D+00  0.295902D+00
      6 -0.550196D-02 -0.136994D-03 -0.128633D-03  0.121312D-01  0.138584D-01
      7 -0.412524D-03  0.263694D-02 -0.599300D-02 -0.314400D-02 -0.592279D-02
      8 -0.308831D-02  0.450368D-03  0.168058D-02 -0.532190D-02 -0.842693D-02
      9 -0.305763D-02  0.308331D-02  0.100139D-02 -0.551370D-03 -0.729051D-03
     10  0.361319D-02 -0.851356D-03 -0.397007D-02  0.136397D-01 -0.165064D-01
     11 -0.260958D-02  0.366302D-02  0.633207D-03  0.238760D-01 -0.141929D-01
     12  0.763593D-03  0.898947D-03 -0.390519D-02 -0.236611D-03  0.627011D-02
     13  0.389981D-02  0.111993D-02 -0.751195D-02 -0.100537D+00 -0.812480D-01
     14 -0.412617D-02 -0.254407D-02  0.112583D-02 -0.108138D+00 -0.280596D+00
     15  0.842924D-03  0.848813D-03 -0.143780D-01 -0.341727D-02 -0.177177D-01
     16 -0.284316D-01 -0.243205D-01  0.144806D-01 -0.157793D-02 -0.296643D-02
     17 -0.811425D-02 -0.172782D-01 -0.159840D-02 -0.207343D-02  0.134360D-02
     18  0.429985D-01  0.496022D-01 -0.485068D-01  0.214157D-02  0.123107D-01
     19 -0.223158D-01  0.408999D-04  0.347147D-02 -0.235328D-01 -0.735893D-02
     20 -0.348241D-02 -0.176434D-01  0.209472D-01 -0.222619D-01  0.690322D-02
     21 -0.421752D-01 -0.346164D-01  0.105033D+00 -0.345994D-02 -0.108651D-01
                6             7             8             9            10 
      6  0.494398D-01
      7  0.138364D-01  0.849151D-01
      8  0.283973D-01  0.181469D-01  0.606222D-01
      9  0.715499D-03 -0.784785D-01 -0.649384D-01  0.296024D+00
     10 -0.658299D-02 -0.396161D-02  0.427499D-02 -0.465967D-04  0.169540D+00
     11 -0.799832D-02 -0.108293D-01  0.724992D-02  0.818812D-02 -0.132128D+00
     12 -0.116878D-02  0.191466D-01 -0.238372D-01 -0.425730D-02 -0.646411D-01
     13  0.641716D-02 -0.791173D-01 -0.160437D-01  0.955001D-01 -0.151084D+00
     14 -0.157602D-01 -0.587166D-02 -0.532310D-01  0.518322D-01  0.124640D+00
     15 -0.332400D-01  0.810911D-01  0.596785D-01 -0.261745D+00  0.650049D-01
     16 -0.252638D-04  0.222181D-02  0.865327D-03 -0.208782D-02 -0.105473D-02
     17 -0.737953D-03 -0.173259D-02 -0.268099D-03  0.229859D-03 -0.127537D-02
     18  0.109664D-02 -0.782855D-02 -0.326723D-03  0.605792D-02  0.211700D-02
     19 -0.202905D-01 -0.466683D-03  0.116712D-02 -0.112995D-01 -0.306672D-01
     20 -0.176117D-01  0.356557D-02 -0.640824D-02  0.232939D-02  0.218329D-01
     21 -0.167180D-01 -0.217746D-01 -0.661207D-03 -0.377624D-01  0.812391D-02
               11            12            13            14            15 
     11  0.208540D+00
     12  0.850200D-01  0.969107D-01
     13  0.116391D+00  0.711592D-01  0.528348D+00
     14 -0.198893D+00 -0.874162D-01 -0.363265D-01  0.572630D+00
     15 -0.895718D-01 -0.884737D-01 -0.957416D-01  0.557436D-01  0.456899D+00
     16  0.839081D-03 -0.170274D-02  0.159743D-03  0.309784D-02  0.197931D-02
     17 -0.120542D-02  0.308496D-03 -0.188251D-02 -0.546749D-03 -0.352746D-02
     18 -0.286557D-02 -0.141947D-02 -0.348469D-02 -0.869371D-02 -0.226676D-01
     19  0.447361D-02 -0.244975D-01 -0.201804D+00  0.267303D-01 -0.497235D-01
     20 -0.515014D-02  0.187577D-01  0.180020D-01 -0.368253D-01 -0.545735D-02
     21  0.658829D-02  0.231679D-02 -0.663662D-01  0.317347D-02 -0.364166D-01
               16            17            18            19            20 
     16  0.334753D-01
     17  0.103383D-01  0.650032D-02
     18 -0.613635D-01 -0.229424D-01  0.153524D+00
     19 -0.479695D-02  0.473540D-02  0.254125D-01  0.283620D+00
     20  0.121474D-01  0.114547D-01 -0.270793D-01 -0.297964D-01  0.476324D-01
     21  0.487263D-01  0.282651D-01 -0.880749D-01  0.769648D-01  0.810722D-02
               21 
     21  0.715887D-01
 Leave Link  716 at Sat Mar 16 10:37:21 2024, MaxMem=   104857600 cpu:               0.0 elap:               0.0
 (Enter /opt/g16/l123.exe)
 IRC-IRC-IRC-IRC-IRC-IRC-IRC-IRC-IRC-IRC-IRC-IRC-IRC-IRC-IRC-IRC-IRC-IRC
 Pt  2 Step number   1 out of a maximum of  10
 Using modified Bulirsch-Stoer corrector integration.
   Using distance weighted interpolants to fit PES.
 PreDWI: IReCr0= 2 IReCr1= 1 IReCr2= 1 IReCr3= 1
 Modified Bulirsch-Stoer Extrapolation Cycles:
    EPS =    0.000010000000000
    Cycle     1 NS=    48
      PEZero:  N= 2 I= 1 D=  1.64D-04 Err=  4.78D-06
    Cycle     2 NS=    64 Truncation Error =  0.000004775
 BS completed in    2 cycles and     112 integration steps.
 Maximum DWI energy   std dev =  0.000000140 at pt    10
 Maximum DWI gradient std dev =  0.006585107 at pt    16
 SUMMARY OF CORRECTOR INTEGRATION:
   Predictor End Point Energy =  -575.280227
   Old End Point Energy       =  -575.280227
   Corrected End Point Energy =  -575.280227
   Predictor End-Start Dist.  =     0.031456
   Old End-Start Dist.        =     0.031456
   New End-Start Dist.        =     0.031453
   New End-Old End Dist.      =     0.000182
 CORRECTOR INTEGRATION CONVERGENCE:
   Recorrection delta-x convergence threshold:    0.010000
   Delta-x Convergence Met
 Point Number:   2          Path Number:   1
                    CURRENT STRUCTURE
                Cartesian Coordinates (Ang):                
 ---------------------------------------------------------------------
 Center     Atomic                     Coordinates (Angstroms)
 Number     Number                        X           Y           Z
 ---------------------------------------------------------------------
      1          1                   -0.548080   -0.332204   -0.057826
      2          1                    1.012857    1.006061    1.879119
      3          1                    0.206591   -0.237773    2.830473
      4          1                    1.190747   -0.747536    1.423092
      5          6                    0.539621    0.023827    1.816170
      6         17                    0.067148   -0.047610   -1.305470
      7          8                   -0.668983    0.105838    1.108750
 ---------------------------------------------------------------------
   CHANGE IN THE REACTION COORDINATE =    0.03145
   NET REACTION COORDINATE UP TO THIS POINT =    0.06292
  # OF POINTS ALONG THE PATH =   2
  # OF STEPS =   1

 Calculating another point on the path.
 Point Number  3 in FORWARD path direction.
 Using LQA Reaction Path Following.
   LQA: T_Est iteration completed in    3 iterations.
 IRC-IRC-IRC-IRC-IRC-IRC-IRC-IRC-IRC-IRC-IRC-IRC-IRC-IRC-IRC-IRC-IRC-IRC
 Leave Link  123 at Sat Mar 16 10:37:22 2024, MaxMem=   104857600 cpu:               0.0 elap:               0.0
 (Enter /opt/g16/l202.exe)
                          Input orientation:                          
 ---------------------------------------------------------------------
 Center     Atomic      Atomic             Coordinates (Angstroms)
 Number     Number       Type             X           Y           Z
 ---------------------------------------------------------------------
      1          1           0       -0.545576   -0.334933   -0.072822
      2          1           0        1.012180    1.006131    1.879479
      3          1           0        0.206161   -0.237468    2.830597
      4          1           0        1.190198   -0.747495    1.422538
      5          6           0        0.539472    0.023842    1.816045
      6         17           0        0.067179   -0.047665   -1.305644
      7          8           0       -0.668996    0.106093    1.110174
 ---------------------------------------------------------------------
                    Distance matrix (angstroms):
                    1          2          3          4          5
     1  H    0.000000
     2  H    2.834878   0.000000
     3  H    3.000741   1.760917   0.000000
     4  H    2.327922   1.820903   1.791950   0.000000
     5  C    2.207683   1.091957   1.099406   1.083168   0.000000
     6  Cl   1.406358   3.485473   4.142925   3.032147   3.158024
     7  O    1.268548   2.056272   1.960558   2.069489   1.401932
                    6          7
     6  Cl   0.000000
     7  O    2.530172   0.000000
 Symmetry turned off by external request.
 Stoichiometry    CH4ClO(2)
 Framework group  C1[X(CH4ClO)]
 Deg. of freedom    15
 Full point group                 C1      NOp   1
 Rotational constants (GHZ):          32.7126916           3.7561757           3.4513380
 Leave Link  202 at Sat Mar 16 10:37:22 2024, MaxMem=   104857600 cpu:               0.0 elap:               0.0
 (Enter /opt/g16/l301.exe)
 Standard basis: STO-3G (5D, 7F)
 Ernie: Thresh=  0.10000D-02 Tol=  0.10000D-05 Strict=F.
    23 basis functions,    69 primitive gaussians,    23 cartesian basis functions
    18 alpha electrons       17 beta electrons
       nuclear repulsion energy        99.0126815296 Hartrees.
 IExCor=    0 DFT=F Ex=HF Corr=None ExCW=0 ScaHFX=  1.000000
 ScaDFX=  1.000000  1.000000  1.000000  1.000000 ScalE2=  1.000000  1.000000
 IRadAn=      5 IRanWt=     -1 IRanGd=            0 ICorTp=0 IEmpDi=  4
 NAtoms=    7 NActive=    7 NUniq=    7 SFac= 1.00D+00 NAtFMM=   60 NAOKFM=F Big=F
 Integral buffers will be    131072 words long.
 Raffenetti 2 integral format.
 Two-electron integral symmetry is turned off.
 Leave Link  301 at Sat Mar 16 10:37:22 2024, MaxMem=   104857600 cpu:               0.1 elap:               0.0
 (Enter /opt/g16/l402.exe)
 External calculation of energy, first and second derivatives.
 Running external command "python3 -u ../pes/h4cclo_pes.py R"
         input file       "/home/jh-li/scratch/g16/Gau-21702.EIn"
         output file      "/home/jh-li/scratch/g16/Gau-21702.EOu"
         message file     "/home/jh-li/scratch/g16/Gau-21702.EMs"
         fchk file        "/home/jh-li/scratch/g16/Gau-21702.EFC"
         mat. el file     "/home/jh-li/scratch/g16/Gau-21702.EUF"
 Recovered energy= -575.280394573     dipole=      0.000000000000      0.000000000000      0.000000000000
 NRF= 0 NRA=   0 NVA=   0 HaveQM=F NVQ=       0
 Convergence limit is  0.750E-04 MaxStp= 10000 StMxLn= 3.00D-04 StpMin= 1.00D-06.
 Convergence criteria             0.00011250 0.00007500 0.00045000 0.00030000
  Step  NS  ND Rises OKQ   Scale  Max. Force  RMS Force Max. Disp.  RMS Disp.     Energy   Flag
     1   0   0   F    T  1.00D+00 0.00000000 0.00000000 0.00000000 0.00000000 -575.2803946 ====
 Running external command "python3 -u ../pes/h4cclo_pes.py R"
         input file       "/home/jh-li/scratch/g16/Gau-21702.EIn"
         output file      "/home/jh-li/scratch/g16/Gau-21702.EOu"
         message file     "/home/jh-li/scratch/g16/Gau-21702.EMs"
         fchk file        "/home/jh-li/scratch/g16/Gau-21702.EFC"
         mat. el file     "/home/jh-li/scratch/g16/Gau-21702.EUF"
 Recovered energy= -575.280394573     dipole=      0.000000000000      0.000000000000      0.000000000000
 Energy=    -575.280395     NIter=   0.
 Dipole moment=       0.000000       0.000000       0.000000
 Leave Link  402 at Sat Mar 16 10:37:23 2024, MaxMem=   104857600 cpu:               0.0 elap:               1.0
 (Enter /opt/g16/l716.exe)
 Dipole        = 0.00000000D+00 0.00000000D+00 0.00000000D+00
 -------------------------------------------------------------------
 Center     Atomic                   Forces (Hartrees/Bohr)
 Number     Number              X              Y              Z
 -------------------------------------------------------------------
      1        1           0.000833375   -0.001108364   -0.005402626
      2        1          -0.000244145    0.000013759    0.000128658
      3        1          -0.000122912    0.000109985    0.000047012
      4        1          -0.000195789    0.000016862   -0.000211567
      5        6          -0.000710420    0.000068343   -0.000516537
      6       17           0.000591358   -0.000661026   -0.002712129
      7        8          -0.000165686    0.001564211    0.008669311
 -------------------------------------------------------------------
 Cartesian Forces:  Max     0.008669311 RMS     0.002368947
 Force constants in Cartesian coordinates: 
                1             2             3             4             5 
      1  0.420790D-01
      2  0.220019D-01  0.332742D-01
      3 -0.111093D-02 -0.221599D-01 -0.210713D-01
      4  0.212859D-02  0.466937D-03 -0.594389D-02  0.113117D+00
      5  0.461037D-03 -0.882978D-03 -0.377660D-02  0.113750D+00  0.296134D+00
      6 -0.520345D-02 -0.246254D-04 -0.597277D-03  0.122288D-01  0.140350D-01
      7 -0.801593D-03  0.268609D-02 -0.417690D-02 -0.303797D-02 -0.615447D-02
      8 -0.306983D-02  0.394874D-03  0.140704D-02 -0.511825D-02 -0.856272D-02
      9 -0.288263D-02  0.312844D-02  0.671687D-03 -0.575107D-03 -0.632123D-03
     10  0.321137D-02 -0.632387D-03 -0.319433D-02  0.137553D-01 -0.168043D-01
     11 -0.263311D-02  0.357248D-02  0.538698D-03  0.239714D-01 -0.140730D-01
     12  0.787880D-03  0.106579D-02 -0.383790D-02 -0.223262D-03  0.627456D-02
     13  0.457453D-02  0.905998D-03 -0.870864D-02 -0.101006D+00 -0.808446D-01
     14 -0.351368D-02 -0.240367D-02  0.161816D-02 -0.108461D+00 -0.280573D+00
     15  0.104101D-02  0.435989D-03 -0.115508D-01 -0.361940D-02 -0.181684D-01
     16 -0.312141D-01 -0.251224D-01  0.218561D-01 -0.148764D-02 -0.306711D-02
     17 -0.942313D-02 -0.176801D-01  0.210263D-02 -0.205846D-02  0.123578D-02
     18  0.488086D-01  0.511130D-01 -0.634540D-01  0.188389D-02  0.124969D-01
     19 -0.199571D-01 -0.308311D-03  0.125719D-02 -0.234464D-01 -0.736081D-02
     20 -0.383044D-02 -0.162692D-01  0.202683D-01 -0.225275D-01  0.675805D-02
     21 -0.414581D-01 -0.335525D-01  0.998357D-01 -0.375139D-02 -0.102181D-01
                6             7             8             9            10 
      6  0.491124D-01
      7  0.141643D-01  0.846015D-01
      8  0.283687D-01  0.179527D-01  0.602710D-01
      9  0.574552D-03 -0.783256D-01 -0.648559D-01  0.295760D+00
     10 -0.680968D-02 -0.379193D-02  0.402214D-02 -0.190006D-03  0.169860D+00
     11 -0.785700D-02 -0.110240D-01  0.722323D-02  0.831802D-02 -0.132176D+00
     12 -0.134574D-02  0.194127D-01 -0.237786D-01 -0.429872D-02 -0.646108D-01
     13  0.593926D-02 -0.788527D-01 -0.157399D-01  0.952172D-01 -0.151556D+00
     14 -0.160569D-01 -0.508834D-02 -0.523552D-01  0.514757D-01  0.125188D+00
     15 -0.322560D-01  0.798401D-01  0.595495D-01 -0.261319D+00  0.654524D-01
     16 -0.149758D-03  0.257414D-02  0.827077D-03 -0.218327D-02 -0.813906D-03
     17 -0.826010D-03 -0.152810D-02 -0.271861D-03  0.118859D-03 -0.126806D-02
     18  0.132684D-02 -0.843715D-02 -0.168647D-03  0.630364D-02  0.161677D-02
     19 -0.201855D-01 -0.655946D-03  0.112640D-02 -0.110823D-01 -0.306389D-01
     20 -0.176285D-01  0.314888D-02 -0.671212D-02  0.244241D-02  0.216576D-01
     21 -0.168184D-01 -0.224781D-01 -0.529535D-03 -0.376570D-01  0.774048D-02
               11            12            13            14            15 
     11  0.208576D+00
     12  0.852673D-01  0.968926D-01
     13  0.116492D+00  0.706890D-01  0.528687D+00
     14 -0.198848D+00 -0.878585D-01 -0.375624D-01  0.570827D+00
     15 -0.902067D-01 -0.878873D-01 -0.944375D-01  0.568498D-01  0.452001D+00
     16  0.755984D-03 -0.172893D-02 -0.260940D-04  0.308716D-02  0.263980D-02
     17 -0.117968D-02  0.231683D-03 -0.203261D-02 -0.546291D-03 -0.309907D-02
     18 -0.268606D-02 -0.157474D-02 -0.350166D-02 -0.883244D-02 -0.235744D-01
     19  0.462697D-02 -0.243348D-01 -0.201959D+00  0.263576D-01 -0.508803D-01
     20 -0.525829D-02  0.187994D-01  0.187943D-01 -0.361024D-01 -0.536471D-02
     21  0.661955D-02  0.205395D-02 -0.652302D-01  0.281000D-02 -0.354341D-01
               16            17            18            19            20 
     16  0.362737D-01
     17  0.118289D-01  0.698639D-02
     18 -0.674713D-01 -0.259986D-01  0.164964D+00
     19 -0.531030D-02  0.447696D-02  0.270935D-01  0.282006D+00
     20  0.116912D-01  0.114557D-01 -0.259186D-01 -0.289272D-01  0.460899D-01
     21  0.470411D-01  0.274661D-01 -0.839729D-01  0.781746D-01  0.739626D-02
               21 
     21  0.719654D-01
 Leave Link  716 at Sat Mar 16 10:37:23 2024, MaxMem=   104857600 cpu:               0.0 elap:               0.0
 (Enter /opt/g16/l123.exe)
 IRC-IRC-IRC-IRC-IRC-IRC-IRC-IRC-IRC-IRC-IRC-IRC-IRC-IRC-IRC-IRC-IRC-IRC
 Pt  3 Step number   1 out of a maximum of  10
 Using modified Bulirsch-Stoer corrector integration.
   Using distance weighted interpolants to fit PES.
 PreDWI: IReCr0= 2 IReCr1= 1 IReCr2= 1 IReCr3= 1
 Modified Bulirsch-Stoer Extrapolation Cycles:
    EPS =    0.000010000000000
    Cycle     1 NS=    48
      PEZero:  N= 2 I= 1 D=  1.64D-04 Err=  5.93D-06
    Cycle     2 NS=    64 Truncation Error =  0.000005930
 BS completed in    2 cycles and     112 integration steps.
 Maximum DWI energy   std dev =  0.000000156 at pt    33
 Maximum DWI gradient std dev =  0.004528536 at pt    16
 SUMMARY OF CORRECTOR INTEGRATION:
   Predictor End Point Energy =  -575.280395
   Old End Point Energy       =  -575.280395
   Corrected End Point Energy =  -575.280395
   Predictor End-Start Dist.  =     0.031457
   Old End-Start Dist.        =     0.031457
   New End-Start Dist.        =     0.031454
   New End-Old End Dist.      =     0.000157
 CORRECTOR INTEGRATION CONVERGENCE:
   Recorrection delta-x convergence threshold:    0.010000
   Delta-x Convergence Met
 Point Number:   3          Path Number:   1
                    CURRENT STRUCTURE
                Cartesian Coordinates (Ang):                
 ---------------------------------------------------------------------
 Center     Atomic                     Coordinates (Angstroms)
 Number     Number                        X           Y           Z
 ---------------------------------------------------------------------
      1          1                   -0.545608   -0.334980   -0.072799
      2          1                    1.012181    1.006126    1.879478
      3          1                    0.206174   -0.237468    2.830596
      4          1                    1.190200   -0.747494    1.422535
      5          6                    0.539470    0.023842    1.816046
      6         17                    0.067181   -0.047664   -1.305649
      7          8                   -0.668998    0.106095    1.110184
 ---------------------------------------------------------------------
   CHANGE IN THE REACTION COORDINATE =    0.03145
   NET REACTION COORDINATE UP TO THIS POINT =    0.09437
  # OF POINTS ALONG THE PATH =   3
  # OF STEPS =   1

 Calculating another point on the path.
 Point Number  4 in FORWARD path direction.
 Using LQA Reaction Path Following.
   LQA: T_Est iteration completed in    3 iterations.
 IRC-IRC-IRC-IRC-IRC-IRC-IRC-IRC-IRC-IRC-IRC-IRC-IRC-IRC-IRC-IRC-IRC-IRC
 Leave Link  123 at Sat Mar 16 10:37:23 2024, MaxMem=   104857600 cpu:               0.0 elap:               0.0
 (Enter /opt/g16/l202.exe)
                          Input orientation:                          
 ---------------------------------------------------------------------
 Center     Atomic      Atomic             Coordinates (Angstroms)
 Number     Number       Type             X           Y           Z
 ---------------------------------------------------------------------
      1          1           0       -0.543424   -0.338178   -0.087518
      2          1           0        1.011525    1.006166    1.879826
      3          1           0        0.205891   -0.237177    2.830757
      4          1           0        1.189657   -0.747433    1.421941
      5          6           0        0.539300    0.023856    1.815929
      6         17           0        0.067237   -0.047716   -1.305889
      7          8           0       -0.669040    0.106374    1.111729
 ---------------------------------------------------------------------
                    Distance matrix (angstroms):
                    1          2          3          4          5
     1  H    0.000000
     2  H    2.845272   0.000000
     3  H    3.014632   1.760459   0.000000
     4  H    2.334422   1.821126   1.792462   0.000000
     5  C    2.219566   1.091794   1.099625   1.083087   0.000000
     6  Cl   1.393450   3.485847   4.143303   3.031582   3.158119
     7  O    1.285146   2.055212   1.959231   2.068810   1.400997
                    6          7
     6  Cl   0.000000
     7  O    2.531941   0.000000
 Symmetry turned off by external request.
 Stoichiometry    CH4ClO(2)
 Framework group  C1[X(CH4ClO)]
 Deg. of freedom    15
 Full point group                 C1      NOp   1
 Rotational constants (GHZ):          32.7206840           3.7539977           3.4496684
 Leave Link  202 at Sat Mar 16 10:37:23 2024, MaxMem=   104857600 cpu:               0.0 elap:               0.0
 (Enter /opt/g16/l301.exe)
 Standard basis: STO-3G (5D, 7F)
 Ernie: Thresh=  0.10000D-02 Tol=  0.10000D-05 Strict=F.
    23 basis functions,    69 primitive gaussians,    23 cartesian basis functions
    18 alpha electrons       17 beta electrons
       nuclear repulsion energy        99.0140205782 Hartrees.
 IExCor=    0 DFT=F Ex=HF Corr=None ExCW=0 ScaHFX=  1.000000
 ScaDFX=  1.000000  1.000000  1.000000  1.000000 ScalE2=  1.000000  1.000000
 IRadAn=      5 IRanWt=     -1 IRanGd=            0 ICorTp=0 IEmpDi=  4
 NAtoms=    7 NActive=    7 NUniq=    7 SFac= 1.00D+00 NAtFMM=   60 NAOKFM=F Big=F
 Integral buffers will be    131072 words long.
 Raffenetti 2 integral format.
 Two-electron integral symmetry is turned off.
 Leave Link  301 at Sat Mar 16 10:37:23 2024, MaxMem=   104857600 cpu:               0.0 elap:               0.1
 (Enter /opt/g16/l402.exe)
 External calculation of energy, first and second derivatives.
 Running external command "python3 -u ../pes/h4cclo_pes.py R"
         input file       "/home/jh-li/scratch/g16/Gau-21702.EIn"
         output file      "/home/jh-li/scratch/g16/Gau-21702.EOu"
         message file     "/home/jh-li/scratch/g16/Gau-21702.EMs"
         fchk file        "/home/jh-li/scratch/g16/Gau-21702.EFC"
         mat. el file     "/home/jh-li/scratch/g16/Gau-21702.EUF"
 Recovered energy= -575.280602753     dipole=      0.000000000000      0.000000000000      0.000000000000
 NRF= 0 NRA=   0 NVA=   0 HaveQM=F NVQ=       0
 Convergence limit is  0.750E-04 MaxStp= 10000 StMxLn= 3.00D-04 StpMin= 1.00D-06.
 Convergence criteria             0.00011250 0.00007500 0.00045000 0.00030000
  Step  NS  ND Rises OKQ   Scale  Max. Force  RMS Force Max. Disp.  RMS Disp.     Energy   Flag
     1   0   0   F    T  1.00D+00 0.00000000 0.00000000 0.00000000 0.00000000 -575.2806028 ====
 Running external command "python3 -u ../pes/h4cclo_pes.py R"
         input file       "/home/jh-li/scratch/g16/Gau-21702.EIn"
         output file      "/home/jh-li/scratch/g16/Gau-21702.EOu"
         message file     "/home/jh-li/scratch/g16/Gau-21702.EMs"
         fchk file        "/home/jh-li/scratch/g16/Gau-21702.EFC"
         mat. el file     "/home/jh-li/scratch/g16/Gau-21702.EUF"
 Recovered energy= -575.280602753     dipole=      0.000000000000      0.000000000000      0.000000000000
 Energy=    -575.280603     NIter=   0.
 Dipole moment=       0.000000       0.000000       0.000000
 Leave Link  402 at Sat Mar 16 10:37:24 2024, MaxMem=   104857600 cpu:               0.0 elap:               1.0
 (Enter /opt/g16/l716.exe)
 Dipole        = 0.00000000D+00 0.00000000D+00 0.00000000D+00
 -------------------------------------------------------------------
 Center     Atomic                   Forces (Hartrees/Bohr)
 Number     Number              X              Y              Z
 -------------------------------------------------------------------
      1        1           0.000823780   -0.001516337   -0.006205382
      2        1          -0.000275744    0.000007345    0.000145808
      3        1          -0.000077810    0.000121607    0.000075442
      4        1          -0.000227370    0.000028074   -0.000267547
      5        6          -0.000942991    0.000070688   -0.000563895
      6       17           0.001098229   -0.000720362   -0.004242267
      7        8          -0.000413062    0.002012823    0.011059838
 -------------------------------------------------------------------
 Cartesian Forces:  Max     0.011059838 RMS     0.003001656
 Force constants in Cartesian coordinates: 
                1             2             3             4             5 
      1  0.429706D-01
      2  0.229429D-01  0.323925D-01
      3 -0.892363D-02 -0.247110D-01 -0.218156D-02
      4  0.205691D-02  0.679821D-03 -0.522075D-02  0.113228D+00
      5  0.623424D-03 -0.846066D-03 -0.427527D-02  0.113778D+00  0.296300D+00
      6 -0.490026D-02  0.790037D-04 -0.103594D-02  0.123241D-01  0.141837D-01
      7 -0.119115D-02  0.269126D-02 -0.248420D-02 -0.293021D-02 -0.637058D-02
      8 -0.303175D-02  0.331765D-03  0.111183D-02 -0.493523D-02 -0.870244D-02
      9 -0.270639D-02  0.317700D-02  0.386171D-03 -0.584340D-03 -0.519319D-03
     10  0.277985D-02 -0.424210D-03 -0.235309D-02  0.138711D-01 -0.170618D-01
     11 -0.260864D-02  0.346742D-02  0.348849D-03  0.240306D-01 -0.139692D-01
     12  0.815671D-03  0.123491D-02 -0.377921D-02 -0.210488D-03  0.625941D-02
     13  0.522671D-02  0.746253D-03 -0.991211D-02 -0.101433D+00 -0.804670D-01
     14 -0.298192D-02 -0.227364D-02  0.213611D-02 -0.108712D+00 -0.280491D+00
     15  0.114080D-02  0.148663D-04 -0.886599D-02 -0.381325D-02 -0.185461D-01
     16 -0.340595D-01 -0.260548D-01  0.294832D-01 -0.137241D-02 -0.312941D-02
     17 -0.109066D-01 -0.180087D-01  0.609400D-02 -0.202466D-02  0.113128D-02
     18  0.548991D-01  0.528476D-01 -0.782110D-01  0.159143D-02  0.125617D-01
     19 -0.177631D-01 -0.582986D-03 -0.609874D-03 -0.233972D-01 -0.739326D-02
     20 -0.404430D-02 -0.150575D-01  0.192932D-01 -0.227928D-01  0.661308D-02
     21 -0.403396D-01 -0.326366D-01  0.936704D-01 -0.408696D-02 -0.965293D-02
                6             7             8             9            10 
      6  0.488110D-01
      7  0.144942D-01  0.842697D-01
      8  0.283505D-01  0.177593D-01  0.599521D-01
      9  0.429319D-03 -0.780992D-01 -0.647727D-01  0.295487D+00
     10 -0.702858D-02 -0.361989D-02  0.377094D-02 -0.307393D-03  0.170156D+00
     11 -0.772959D-02 -0.112127D-01  0.720305D-02  0.841853D-02 -0.132194D+00
     12 -0.151322D-02  0.196692D-01 -0.237191D-01 -0.436635D-02 -0.645537D-01
     13  0.545662D-02 -0.785745D-01 -0.154345D-01  0.948490D-01 -0.151962D+00
     14 -0.163176D-01 -0.433733D-02 -0.515535D-01  0.511250D-01  0.125646D+00
     15 -0.313467D-01  0.785449D-01  0.593996D-01 -0.260844D+00  0.658587D-01
     16 -0.275052D-03  0.290649D-02  0.776449D-03 -0.225857D-02 -0.548741D-03
     17 -0.907799D-03 -0.131380D-02 -0.276570D-03  0.973818D-05 -0.124190D-02
     18  0.155843D-02 -0.895518D-02  0.764213D-05  0.649001D-02  0.108659D-02
     19 -0.200871D-01 -0.824313D-03  0.109517D-02 -0.109151D-01 -0.306496D-01
     20 -0.176473D-01  0.277638D-02 -0.696804D-02  0.255717D-02  0.214909D-01
     21 -0.169067D-01 -0.231702D-01 -0.385000D-03 -0.375458D-01  0.730219D-02
               11            12            13            14            15 
     11  0.208547D+00
     12  0.854886D-01  0.968825D-01
     13  0.116547D+00  0.701754D-01  0.529030D+00
     14 -0.198755D+00 -0.882462D-01 -0.386973D-01  0.569073D+00
     15 -0.908126D-01 -0.873613D-01 -0.928781D-01  0.578797D-01  0.447445D+00
     16  0.646317D-03 -0.176570D-02 -0.275710D-03  0.309533D-02  0.327739D-02
     17 -0.116392D-02  0.150803D-03 -0.220412D-02 -0.526621D-03 -0.265789D-02
     18 -0.244482D-02 -0.167976D-02 -0.338644D-02 -0.898813D-02 -0.243736D-01
     19  0.480444D-02 -0.241381D-01 -0.202153D+00  0.259942D-01 -0.520940D-01
     20 -0.531816D-02  0.188333D-01  0.195225D-01 -0.354727D-01 -0.528127D-02
     21  0.672478D-02  0.181865D-02 -0.643404D-01  0.241771D-02 -0.346728D-01
               16            17            18            19            20 
     16  0.390670D-01
     17  0.134569D-01  0.742861D-02
     18 -0.736782D-01 -0.292418D-01  0.176046D+00
     19 -0.572098D-02  0.422960D-02  0.284351D-01  0.280546D+00
     20  0.112097D-01  0.114157D-01 -0.247363D-01 -0.281561D-01  0.447478D-01
     21  0.452177D-01  0.265470D-01 -0.798047D-01  0.794547D-01  0.697709D-02
               21 
     21  0.734190D-01
 Leave Link  716 at Sat Mar 16 10:37:24 2024, MaxMem=   104857600 cpu:               0.0 elap:               0.0
 (Enter /opt/g16/l123.exe)
 IRC-IRC-IRC-IRC-IRC-IRC-IRC-IRC-IRC-IRC-IRC-IRC-IRC-IRC-IRC-IRC-IRC-IRC
 Pt  4 Step number   1 out of a maximum of  10
 Using modified Bulirsch-Stoer corrector integration.
   Using distance weighted interpolants to fit PES.
 PreDWI: IReCr0= 2 IReCr1= 1 IReCr2= 1 IReCr3= 1
 Modified Bulirsch-Stoer Extrapolation Cycles:
    EPS =    0.000010000000000
    Cycle     1 NS=    48
      PEZero:  N= 2 I= 1 D=  1.64D-04 Err=  7.00D-06
    Cycle     2 NS=    64 Truncation Error =  0.000006995
 BS completed in    2 cycles and     112 integration steps.
 Maximum DWI energy   std dev =  0.000000189 at pt    24
 Maximum DWI gradient std dev =  0.003870962 at pt    17
 SUMMARY OF CORRECTOR INTEGRATION:
   Predictor End Point Energy =  -575.280603
   Old End Point Energy       =  -575.280603
   Corrected End Point Energy =  -575.280603
   Predictor End-Start Dist.  =     0.031457
   Old End-Start Dist.        =     0.031457
   New End-Start Dist.        =     0.031452
   New End-Old End Dist.      =     0.000149
 CORRECTOR INTEGRATION CONVERGENCE:
   Recorrection delta-x convergence threshold:    0.010000
   Delta-x Convergence Met
 Point Number:   4          Path Number:   1
                    CURRENT STRUCTURE
                Cartesian Coordinates (Ang):                
 ---------------------------------------------------------------------
 Center     Atomic                     Coordinates (Angstroms)
 Number     Number                        X           Y           Z
 ---------------------------------------------------------------------
      1          1                   -0.543458   -0.338221   -0.087492
      2          1                    1.011526    1.006162    1.879826
      3          1                    0.205902   -0.237177    2.830757
      4          1                    1.189659   -0.747433    1.421938
      5          6                    0.539298    0.023856    1.815930
      6         17                    0.067239   -0.047715   -1.305894
      7          8                   -0.669041    0.106376    1.111738
 ---------------------------------------------------------------------
   CHANGE IN THE REACTION COORDINATE =    0.03145
   NET REACTION COORDINATE UP TO THIS POINT =    0.12582
  # OF POINTS ALONG THE PATH =   4
  # OF STEPS =   1

 Calculating another point on the path.
 Point Number  5 in FORWARD path direction.
 Using LQA Reaction Path Following.
   LQA: T_Est iteration completed in    3 iterations.
 IRC-IRC-IRC-IRC-IRC-IRC-IRC-IRC-IRC-IRC-IRC-IRC-IRC-IRC-IRC-IRC-IRC-IRC
 Leave Link  123 at Sat Mar 16 10:37:24 2024, MaxMem=   104857600 cpu:               0.0 elap:               0.0
 (Enter /opt/g16/l202.exe)
                          Input orientation:                          
 ---------------------------------------------------------------------
 Center     Atomic      Atomic             Coordinates (Angstroms)
 Number     Number       Type             X           Y           Z
 ---------------------------------------------------------------------
      1          1           0       -0.541684   -0.341966   -0.101822
      2          1           0        1.010898    1.006179    1.880159
      3          1           0        0.205792   -0.236905    2.830967
      4          1           0        1.189124   -0.747352    1.421295
      5          6           0        0.539105    0.023868    1.815823
      6         17           0        0.067326   -0.047762   -1.306212
      7          8           0       -0.669119    0.106683    1.113423
 ---------------------------------------------------------------------
                    Distance matrix (angstroms):
                    1          2          3          4          5
     1  H    0.000000
     2  H    2.855916   0.000000
     3  H    3.028368   1.759969   0.000000
     4  H    2.340923   1.821316   1.792951   0.000000
     5  C    2.231435   1.091633   1.099826   1.083031   0.000000
     6  Cl   1.381306   3.486271   4.143815   3.031032   3.158293
     7  O    1.301671   2.054126   1.957927   2.068147   1.400011
                    6          7
     6  Cl   0.000000
     7  O    2.533938   0.000000
 Symmetry turned off by external request.
 Stoichiometry    CH4ClO(2)
 Framework group  C1[X(CH4ClO)]
 Deg. of freedom    15
 Full point group                 C1      NOp   1
 Rotational constants (GHZ):          32.7251773           3.7514497           3.4476660
 Leave Link  202 at Sat Mar 16 10:37:24 2024, MaxMem=   104857600 cpu:               0.0 elap:               0.0
 (Enter /opt/g16/l301.exe)
 Standard basis: STO-3G (5D, 7F)
 Ernie: Thresh=  0.10000D-02 Tol=  0.10000D-05 Strict=F.
    23 basis functions,    69 primitive gaussians,    23 cartesian basis functions
    18 alpha electrons       17 beta electrons
       nuclear repulsion energy        99.0118311667 Hartrees.
 IExCor=    0 DFT=F Ex=HF Corr=None ExCW=0 ScaHFX=  1.000000
 ScaDFX=  1.000000  1.000000  1.000000  1.000000 ScalE2=  1.000000  1.000000
 IRadAn=      5 IRanWt=     -1 IRanGd=            0 ICorTp=0 IEmpDi=  4
 NAtoms=    7 NActive=    7 NUniq=    7 SFac= 1.00D+00 NAtFMM=   60 NAOKFM=F Big=F
 Integral buffers will be    131072 words long.
 Raffenetti 2 integral format.
 Two-electron integral symmetry is turned off.
 Leave Link  301 at Sat Mar 16 10:37:24 2024, MaxMem=   104857600 cpu:               0.1 elap:               0.0
 (Enter /opt/g16/l402.exe)
 External calculation of energy, first and second derivatives.
 Running external command "python3 -u ../pes/h4cclo_pes.py R"
         input file       "/home/jh-li/scratch/g16/Gau-21702.EIn"
         output file      "/home/jh-li/scratch/g16/Gau-21702.EOu"
         message file     "/home/jh-li/scratch/g16/Gau-21702.EMs"
         fchk file        "/home/jh-li/scratch/g16/Gau-21702.EFC"
         mat. el file     "/home/jh-li/scratch/g16/Gau-21702.EUF"
 Recovered energy= -575.280837075     dipole=      0.000000000000      0.000000000000      0.000000000000
 NRF= 0 NRA=   0 NVA=   0 HaveQM=F NVQ=       0
 Convergence limit is  0.750E-04 MaxStp= 10000 StMxLn= 3.00D-04 StpMin= 1.00D-06.
 Convergence criteria             0.00011250 0.00007500 0.00045000 0.00030000
  Step  NS  ND Rises OKQ   Scale  Max. Force  RMS Force Max. Disp.  RMS Disp.     Energy   Flag
     1   0   0   F    T  1.00D+00 0.00000000 0.00000000 0.00000000 0.00000000 -575.2808371 ====
 Running external command "python3 -u ../pes/h4cclo_pes.py R"
         input file       "/home/jh-li/scratch/g16/Gau-21702.EIn"
         output file      "/home/jh-li/scratch/g16/Gau-21702.EOu"
         message file     "/home/jh-li/scratch/g16/Gau-21702.EMs"
         fchk file        "/home/jh-li/scratch/g16/Gau-21702.EFC"
         mat. el file     "/home/jh-li/scratch/g16/Gau-21702.EUF"
 Recovered energy= -575.280837075     dipole=      0.000000000000      0.000000000000      0.000000000000
 Energy=    -575.280837     NIter=   0.
 Dipole moment=       0.000000       0.000000       0.000000
 Leave Link  402 at Sat Mar 16 10:37:25 2024, MaxMem=   104857600 cpu:               0.0 elap:               1.0
 (Enter /opt/g16/l716.exe)
 Dipole        = 0.00000000D+00 0.00000000D+00 0.00000000D+00
 -------------------------------------------------------------------
 Center     Atomic                   Forces (Hartrees/Bohr)
 Number     Number              X              Y              Z
 -------------------------------------------------------------------
      1        1           0.000680702   -0.001919237   -0.006529488
      2        1          -0.000283116   -0.000000208    0.000151336
      3        1           0.000001704    0.000120899    0.000109909
      4        1          -0.000242833    0.000040349   -0.000314572
      5        6          -0.001154525    0.000067117   -0.000553924
      6       17           0.001720013   -0.000705864   -0.005976289
      7        8          -0.000737629    0.002400847    0.013114561
 -------------------------------------------------------------------
 Cartesian Forces:  Max     0.013114561 RMS     0.003560278
 Force constants in Cartesian coordinates: 
                1             2             3             4             5 
      1  0.441576D-01
      2  0.239808D-01  0.316366D-01
      3 -0.170893D-01 -0.273609D-01  0.167996D-01
      4  0.195743D-02  0.866312D-03 -0.446268D-02  0.113333D+00
      5  0.752225D-03 -0.789982D-03 -0.460983D-02  0.113797D+00  0.296391D+00
      6 -0.460033D-02  0.171129D-03 -0.143418D-02  0.124143D-01  0.143055D-01
      7 -0.156624D-02  0.265987D-02 -0.950485D-03 -0.282061D-02 -0.656842D-02
      8 -0.297667D-02  0.261793D-03  0.804852D-03 -0.477450D-02 -0.884520D-02
      9 -0.253516D-02  0.322672D-02  0.152001D-03 -0.577895D-03 -0.395267D-03
     10  0.233099D-02 -0.230547D-03 -0.147576D-02  0.139820D-01 -0.172757D-01
     11 -0.253974D-02  0.335340D-02  0.738363D-04  0.240532D-01 -0.138853D-01
     12  0.846262D-03  0.140466D-02 -0.373633D-02 -0.198034D-03  0.622640D-02
     13  0.584189D-02  0.634963D-03 -0.111210D-01 -0.101805D+00 -0.801180D-01
     14 -0.253198D-02 -0.215564D-02  0.267307D-02 -0.108891D+00 -0.280336D+00
     15  0.116000D-02 -0.403087D-03 -0.637623D-02 -0.399601D-02 -0.188496D-01
     16 -0.369272D-01 -0.271165D-01  0.371605D-01 -0.123761D-02 -0.315359D-02
     17 -0.125461D-01 -0.182956D-01  0.102849D-01 -0.197504D-02  0.103277D-02
     18  0.611141D-01  0.547826D-01 -0.923936D-01  0.127761D-02  0.125129D-01
     19 -0.157747D-01 -0.796287D-03 -0.208074D-02 -0.233854D-01 -0.745489D-02
     20 -0.414515D-02 -0.140049D-01  0.181313D-01 -0.230517D-01  0.646825D-02
     21 -0.389068D-01 -0.318156D-01  0.869610D-01 -0.445760D-02 -0.917919D-02
                6             7             8             9            10 
      6  0.485326D-01
      7  0.148196D-01  0.839119D-01
      8  0.283389D-01  0.175669D-01  0.596617D-01
      9  0.281112D-03 -0.778012D-01 -0.646911D-01  0.295205D+00
     10 -0.723452D-02 -0.344826D-02  0.352673D-02 -0.396277D-03  0.170414D+00
     11 -0.761872D-02 -0.113914D-01  0.718620D-02  0.849157D-02 -0.132179D+00
     12 -0.166877D-02  0.199113D-01 -0.236587D-01 -0.445767D-02 -0.644777D-01
     13  0.498112D-02 -0.782733D-01 -0.151307D-01  0.944039D-01 -0.152288D+00
     14 -0.165412D-01 -0.362546D-02 -0.508227D-01  0.507871D-01  0.126009D+00
     15 -0.305145D-01  0.772220D-01  0.592353D-01 -0.260327D+00  0.662203D-01
     16 -0.396443D-03  0.320947D-02  0.715902D-03 -0.231288D-02 -0.267109D-03
     17 -0.981355D-03 -0.109718D-02 -0.281437D-03 -0.945548D-04 -0.119891D-02
     18  0.178392D-02 -0.937142D-02  0.195105D-03  0.662063D-02  0.543835D-03
     19 -0.199998D-01 -0.976312D-03  0.107254D-02 -0.108028D-01 -0.306963D-01
     20 -0.176632D-01  0.244784D-02 -0.717493D-02  0.267089D-02  0.213346D-01
     21 -0.169842D-01 -0.238298D-01 -0.231783D-03 -0.374377D-01  0.682455D-02
               11            12            13            14            15 
     11  0.208453D+00
     12  0.856842D-01  0.968789D-01
     13  0.116555D+00  0.696334D-01  0.529366D+00
     14 -0.198602D+00 -0.885761D-01 -0.397213D-01  0.567339D+00
     15 -0.913826D-01 -0.868993D-01 -0.910921D-01  0.588189D-01  0.443272D+00
     16  0.513721D-03 -0.181061D-02 -0.581937D-03  0.312192D-02  0.387355D-02
     17 -0.115959D-02  0.654364D-04 -0.239569D-02 -0.487468D-03 -0.221552D-02
     18 -0.215185D-02 -0.173716D-02 -0.314713D-02 -0.915755D-02 -0.250456D-01
     19  0.500163D-02 -0.239120D-01 -0.202403D+00  0.256469D-01 -0.533511D-01
     20 -0.533374D-02  0.188558D-01  0.201891D-01 -0.349308D-01 -0.520719D-02
     21  0.689734D-02  0.162098D-02 -0.636971D-01  0.200308D-02 -0.341270D-01
               16            17            18            19            20 
     16  0.418176D-01
     17  0.152018D-01  0.784994D-02
     18 -0.798362D-01 -0.326164D-01  0.186491D+00
     19 -0.601681D-02  0.400659D-02  0.294115D-01  0.279292D+00
     20  0.107172D-01  0.113411D-01 -0.235586D-01 -0.274858D-01  0.435939D-01
     21  0.433202D-01  0.255503D-01 -0.756889D-01  0.807829D-01  0.676811D-02
               21 
     21  0.756376D-01
 Leave Link  716 at Sat Mar 16 10:37:25 2024, MaxMem=   104857600 cpu:               0.0 elap:               0.0
 (Enter /opt/g16/l123.exe)
 IRC-IRC-IRC-IRC-IRC-IRC-IRC-IRC-IRC-IRC-IRC-IRC-IRC-IRC-IRC-IRC-IRC-IRC
 Pt  5 Step number   1 out of a maximum of  10
 Using modified Bulirsch-Stoer corrector integration.
   Using distance weighted interpolants to fit PES.
 PreDWI: IReCr0= 2 IReCr1= 1 IReCr2= 1 IReCr3= 1
 Modified Bulirsch-Stoer Extrapolation Cycles:
    EPS =    0.000010000000000
    Cycle     1 NS=    48
      PEZero:  N= 2 I= 1 D=  1.64D-04 Err=  7.93D-06
    Cycle     2 NS=    64 Truncation Error =  0.000007931
 BS completed in    2 cycles and     112 integration steps.
 Maximum DWI energy   std dev =  0.000000226 at pt    24
 Maximum DWI gradient std dev =  0.003579954 at pt    17
 SUMMARY OF CORRECTOR INTEGRATION:
   Predictor End Point Energy =  -575.280837
   Old End Point Energy       =  -575.280837
   Corrected End Point Energy =  -575.280837
   Predictor End-Start Dist.  =     0.031456
   Old End-Start Dist.        =     0.031456
   New End-Start Dist.        =     0.031449
   New End-Old End Dist.      =     0.000148
 CORRECTOR INTEGRATION CONVERGENCE:
   Recorrection delta-x convergence threshold:    0.010000
   Delta-x Convergence Met
 Point Number:   5          Path Number:   1
                    CURRENT STRUCTURE
                Cartesian Coordinates (Ang):                
 ---------------------------------------------------------------------
 Center     Atomic                     Coordinates (Angstroms)
 Number     Number                        X           Y           Z
 ---------------------------------------------------------------------
      1          1                   -0.541720   -0.342007   -0.101791
      2          1                    1.010899    1.006176    1.880159
      3          1                    0.205802   -0.236906    2.830968
      4          1                    1.189127   -0.747352    1.421292
      5          6                    0.539104    0.023868    1.815823
      6         17                    0.067327   -0.047762   -1.306217
      7          8                   -0.669121    0.106685    1.113431
 ---------------------------------------------------------------------
   CHANGE IN THE REACTION COORDINATE =    0.03145
   NET REACTION COORDINATE UP TO THIS POINT =    0.15727
  # OF POINTS ALONG THE PATH =   5
  # OF STEPS =   1

 Calculating another point on the path.
 Point Number  6 in FORWARD path direction.
 Using LQA Reaction Path Following.
   LQA: T_Est iteration completed in    3 iterations.
 IRC-IRC-IRC-IRC-IRC-IRC-IRC-IRC-IRC-IRC-IRC-IRC-IRC-IRC-IRC-IRC-IRC-IRC
 Leave Link  123 at Sat Mar 16 10:37:25 2024, MaxMem=   104857600 cpu:               0.0 elap:               0.0
 (Enter /opt/g16/l202.exe)
                          Input orientation:                          
 ---------------------------------------------------------------------
 Center     Atomic      Atomic             Coordinates (Angstroms)
 Number     Number       Type             X           Y           Z
 ---------------------------------------------------------------------
      1          1           0       -0.540455   -0.346368   -0.115577
      2          1           0        1.010313    1.006174    1.880475
      3          1           0        0.205894   -0.236662    2.831243
[...]
 Convergence limit is  0.750E-04 MaxStp= 10000 StMxLn= 3.00D-04 StpMin= 1.00D-06.
 Convergence criteria             0.00011250 0.00007500 0.00045000 0.00030000
  Step  NS  ND Rises OKQ   Scale  Max. Force  RMS Force Max. Disp.  RMS Disp.     Energy   Flag
     1   0   0   F    T  1.00D+00 0.00000000 0.00000000 0.00000000 0.00000000 -575.3048690 ====
 Running external command "python3 -u ../pes/h4cclo_pes.py R"
         input file       "/home/jh-li/scratch/g16/Gau-21702.EIn"
         output file      "/home/jh-li/scratch/g16/Gau-21702.EOu"
         message file     "/home/jh-li/scratch/g16/Gau-21702.EMs"
         fchk file        "/home/jh-li/scratch/g16/Gau-21702.EFC"
         mat. el file     "/home/jh-li/scratch/g16/Gau-21702.EUF"
 Recovered energy= -575.304869013     dipole=      0.000000000000      0.000000000000      0.000000000000
 Energy=    -575.304869     NIter=   0.
 Dipole moment=       0.000000       0.000000       0.000000
 Leave Link  402 at Sat Mar 16 10:40:45 2024, MaxMem=   104857600 cpu:               0.0 elap:               0.9
 (Enter /opt/g16/l716.exe)
 Dipole        = 0.00000000D+00 0.00000000D+00 0.00000000D+00
 -------------------------------------------------------------------
 Center     Atomic                   Forces (Hartrees/Bohr)
 Number     Number              X              Y              Z
 -------------------------------------------------------------------
      1        1           0.000007790   -0.000005640   -0.000006514
      2        1           0.000011523   -0.000010044   -0.000027025
      3        1          -0.000015351    0.000044602   -0.000001907
      4        1          -0.000013551   -0.000014789    0.000036716
      5        6          -0.000015121    0.000036261    0.000018789
      6       17          -0.000111422    0.000065563    0.000196035
      7        8           0.000134223   -0.000121838   -0.000222722
 -------------------------------------------------------------------
 Cartesian Forces:  Max     0.000222722 RMS     0.000082975
 Force constants in Cartesian coordinates: 
                1             2             3             4             5 
      1  0.121572D+00
      2  0.186333D+00  0.433247D+00
      3  0.324370D-01  0.203691D-01  0.246765D-01
      4 -0.424445D-02  0.112646D-02 -0.333949D-02  0.106034D+00
      5  0.163553D-02  0.198378D-02  0.107894D-02  0.109830D+00  0.295059D+00
      6 -0.382746D-02  0.153173D-03 -0.227532D-02  0.361897D-02 -0.749238D-02
      7  0.169346D-02  0.862992D-03 -0.927477D-03 -0.296557D-02 -0.572582D-03
      8  0.520475D-03  0.277923D-03 -0.105121D-02 -0.810366D-02 -0.499927D-02
      9  0.315939D-03  0.159469D-02 -0.301185D-03  0.617765D-03 -0.159123D-02
     10  0.119946D-02  0.193146D-02  0.182294D-03  0.106388D-01 -0.104013D-01
     11 -0.539789D-03  0.971658D-03  0.648583D-03  0.179960D-01 -0.165342D-01
     12  0.632787D-03  0.104619D-02  0.621229D-03 -0.146092D-02  0.232005D-02
     13 -0.167193D-01  0.990108D-02 -0.104181D-01 -0.877956D-01 -0.102299D+00
     14 -0.316558D-01  0.265313D-02 -0.216203D-01 -0.905561D-01 -0.281714D+00
     15 -0.192887D-02  0.340049D-02 -0.337886D-02  0.590173D-02  0.739406D-02
     16 -0.708116D-03 -0.280292D-04  0.752063D-03 -0.254358D-05  0.211130D-03
     17 -0.813617D-03 -0.498130D-03  0.179646D-02 -0.188718D-03  0.159350D-03
     18  0.176745D-02  0.113572D-02  0.419526D-03  0.170700D-03 -0.179566D-03
     19 -0.102793D+00 -0.200126D+00 -0.186871D-01 -0.216620D-01  0.159325D-02
     20 -0.155483D+00 -0.438631D+00 -0.122203D-02 -0.301120D-01  0.604930D-02
     21 -0.293953D-01 -0.277019D-01 -0.197621D-01 -0.551212D-02 -0.153124D-02
                6             7             8             9            10 
      6  0.520871D-01
      7  0.119097D-01  0.763091D-01
      8  0.277183D-01  0.177639D-01  0.640841D-01
      9  0.191590D-02 -0.639744D-01 -0.652328D-01  0.298398D+00
     10 -0.545157D-02 -0.316364D-02  0.607685D-02  0.350480D-02  0.169680D+00
     11 -0.131291D-01 -0.715835D-02  0.709614D-02  0.501105D-02 -0.120605D+00
     12  0.112265D-02  0.177946D-01 -0.204307D-01 -0.963655D-02 -0.649955D-01
     13  0.953069D-02 -0.698123D-01 -0.172774D-01  0.691966D-01 -0.146501D+00
     14  0.146954D-01 -0.203443D-01 -0.691467D-01  0.577153D-01  0.104775D+00
     15 -0.511333D-01  0.720167D-01  0.571226D-01 -0.270967D+00  0.666323D-01
     16 -0.869880D-04 -0.407468D-03  0.582662D-05 -0.306549D-03 -0.508759D-03
     17  0.751927D-04 -0.437576D-04 -0.174354D-04 -0.941802D-04 -0.177514D-03
     18  0.121314D-02  0.213579D-02 -0.888124D-04  0.538177D-03  0.212070D-02
     19 -0.156943D-01 -0.165416D-02  0.101442D-02 -0.935153D-02 -0.313387D-01
     20 -0.220232D-01  0.949343D-02  0.270630D-02  0.259447D-02  0.184043D-01
     21 -0.292746D-02 -0.389499D-01  0.196782D-02 -0.199536D-01 -0.199404D-02
               11            12            13            14            15 
     11  0.176377D+00
     12  0.760172D-01  0.984614D-01
     13  0.107615D+00  0.704134D-01  0.488148D+00
     14 -0.172026D+00 -0.756290D-01  0.177589D-01  0.607656D+00
     15 -0.709723D-01 -0.958228D-01 -0.635824D-01  0.252284D-02  0.537190D+00
     16 -0.272515D-03 -0.129271D-02  0.154878D-02  0.711421D-03 -0.208120D-02
     17 -0.948484D-04  0.468817D-03  0.431711D-03 -0.110365D-03  0.332617D-04
     18 -0.110393D-02  0.128597D-02 -0.668483D-02 -0.168387D-03 -0.642424D-02
     19  0.296921D-02 -0.210922D-01 -0.168885D+00  0.193091D-01 -0.769661D-01
     20  0.421592D-02  0.162059D-01 -0.161305D-01 -0.873265D-01  0.506283D-03
     21  0.352698D-02  0.397374D-02 -0.684592D-01  0.224797D-01 -0.109466D+00
               16            17            18            19            20 
     16  0.392037D-02
     17 -0.258470D-03  0.873772D-03
     18 -0.440459D-02  0.647144D-03  0.176727D-01
     19 -0.384280D-02  0.105036D-02  0.489578D-02  0.330183D+00
     20 -0.369542D-03 -0.312497D-03 -0.241701D-03  0.174194D+00  0.513298D+00
     21  0.741731D-02 -0.292694D-02 -0.146990D-01  0.136900D+00  0.418521D-02
               21 
     21  0.162829D+00
 Leave Link  716 at Sat Mar 16 10:40:45 2024, MaxMem=   104857600 cpu:               0.0 elap:               0.0
 (Enter /opt/g16/l123.exe)
 IRC-IRC-IRC-IRC-IRC-IRC-IRC-IRC-IRC-IRC-IRC-IRC-IRC-IRC-IRC-IRC-IRC-IRC
 Pt184 Step number   1 out of a maximum of  10
 Using modified Bulirsch-Stoer corrector integration.
   Using distance weighted interpolants to fit PES.
 PreDWI: IReCr0= 2 IReCr1= 1 IReCr2= 1 IReCr3= 1
 Modified Bulirsch-Stoer Extrapolation Cycles:
    EPS =    0.000010000000000
    Cycle     1 NS=    48
      PEZero:  N= 2 I= 1 D=  1.64D-04 Err=  7.28D-03
    Cycle     2 NS=    64 Truncation Error =  0.007281198
      PEZero:  N= 3 I= 2 D=  1.64D-04 Err=  1.12D-05
      PEZero:  N= 3 I= 1 D=  3.27D-04 Err=  7.30D-03
    Cycle     3 NS=    96 Truncation Error =  0.000011223
      PEZero:  N= 4 I= 3 D=  8.18D-05 Err=  8.41D-06
      PEZero:  N= 4 I= 2 D=  2.45D-04 Err=  1.03D-07
      PEZero:  N= 4 I= 1 D=  4.09D-04 Err=  6.74D-06
    Cycle     4 NS=   128 Truncation Error =  0.000000103
 BS completed in    4 cycles and     336 integration steps.
 Maximum DWI energy   std dev =  0.000000028 at pt    32
 Maximum DWI gradient std dev =  0.018585597 at pt    18
 SUMMARY OF CORRECTOR INTEGRATION:
   Predictor End Point Energy =  -575.304869
   Old End Point Energy       =  -575.304869
   Corrected End Point Energy =  -575.304869
   Predictor End-Start Dist.  =     0.031408
   Old End-Start Dist.        =     0.031408
   New End-Start Dist.        =     0.031352
   New End-Old End Dist.      =     0.000078
 CORRECTOR INTEGRATION CONVERGENCE:
   Recorrection delta-x convergence threshold:    0.010000
   Delta-x Convergence Met
 Point Number:  84          Path Number:   2
                    CURRENT STRUCTURE
                Cartesian Coordinates (Ang):                
 ---------------------------------------------------------------------
 Center     Atomic                     Coordinates (Angstroms)
 Number     Number                        X           Y           Z
 ---------------------------------------------------------------------
      1          1                   -1.044149   -0.764943    0.977946
      2          1                    0.993575    1.003998    1.829174
      3          1                    0.277140   -0.248050    2.870124
      4          1                    1.235904   -0.707203    1.428745
      5          6                    0.534513    0.018481    1.843496
      6         17                    0.069598   -0.035640   -1.311622
      7          8                   -0.645406    0.108979    1.036440
 ---------------------------------------------------------------------
   CHANGE IN THE REACTION COORDINATE =    0.03135
   NET REACTION COORDINATE UP TO THIS POINT =    2.64155
  # OF POINTS ALONG THE PATH = 184
  # OF STEPS =   1

 PES minimum detected on this side of the pathway.
    Magnitude of the gradient =      0.0001083
 Calculation of REVERSE path complete.
 Reaction path calculation complete.
 
 Energies reported relative to the TS energy of        -575.280075
 --------------------------------------------------------------------------
    Summary of reaction path following
 --------------------------------------------------------------------------
                        Energy    RxCoord
   1                   -0.02479  -2.64155
   2                   -0.02479  -2.61020
   3                   -0.02478  -2.57898
   4                   -0.02477  -2.54780
   5                   -0.02476  -2.51648
   6                   -0.02474  -2.48507
   7                   -0.02472  -2.45363
   8                   -0.02468  -2.42218
   9                   -0.02464  -2.39072
  10                   -0.02459  -2.35926
  11                   -0.02454  -2.32781
  12                   -0.02448  -2.29635
  13                   -0.02441  -2.26489
  14                   -0.02433  -2.23343
  15                   -0.02424  -2.20197
  16                   -0.02415  -2.17051
  17                   -0.02405  -2.13905
  18                   -0.02394  -2.10759
  19                   -0.02382  -2.07613
  20                   -0.02369  -2.04467
  21                   -0.02356  -2.01321
  22                   -0.02342  -1.98175
  23                   -0.02328  -1.95029
  24                   -0.02312  -1.91883
  25                   -0.02296  -1.88737
  26                   -0.02279  -1.85591
  27                   -0.02262  -1.82445
  28                   -0.02244  -1.79300
  29                   -0.02225  -1.76154
  30                   -0.02206  -1.73008
  31                   -0.02186  -1.69862
  32                   -0.02165  -1.66716
  33                   -0.02144  -1.63570
  34                   -0.02122  -1.60424
  35                   -0.02100  -1.57278
  36                   -0.02077  -1.54132
  37                   -0.02053  -1.50986
  38                   -0.02030  -1.47840
  39                   -0.02005  -1.44694
  40                   -0.01980  -1.41548
  41                   -0.01954  -1.38402
  42                   -0.01928  -1.35256
  43                   -0.01901  -1.32110
  44                   -0.01874  -1.28964
  45                   -0.01846  -1.25818
  46                   -0.01817  -1.22672
  47                   -0.01787  -1.19527
  48                   -0.01757  -1.16381
  49                   -0.01726  -1.13235
  50                   -0.01694  -1.10089
  51                   -0.01661  -1.06943
  52                   -0.01627  -1.03797
  53                   -0.01592  -1.00651
  54                   -0.01556  -0.97505
  55                   -0.01519  -0.94359
  56                   -0.01481  -0.91213
  57                   -0.01441  -0.88067
  58                   -0.01400  -0.84921
  59                   -0.01358  -0.81775
  60                   -0.01315  -0.78629
  61                   -0.01270  -0.75483
  62                   -0.01224  -0.72337
  63                   -0.01177  -0.69191
  64                   -0.01128  -0.66045
  65                   -0.01078  -0.62899
  66                   -0.01027  -0.59753
  67                   -0.00974  -0.56608
  68                   -0.00920  -0.53462
  69                   -0.00865  -0.50318
  70                   -0.00807  -0.47175
  71                   -0.00746  -0.44033
  72                   -0.00680  -0.40890
  73                   -0.00610  -0.37747
  74                   -0.00536  -0.34602
  75                   -0.00459  -0.31457
  76                   -0.00382  -0.28312
  77                   -0.00308  -0.25166
  78                   -0.00239  -0.22020
  79                   -0.00176  -0.18875
  80                   -0.00121  -0.15729
  81                   -0.00077  -0.12583
  82                   -0.00042  -0.09437
  83                   -0.00018  -0.06292
  84                   -0.00004  -0.03146
  85                    0.00000   0.00000
  86                   -0.00004   0.03146
  87                   -0.00015   0.06292
  88                   -0.00032   0.09437
  89                   -0.00053   0.12582
  90                   -0.00076   0.15727
  91                   -0.00101   0.18871
  92                   -0.00126   0.22016
  93                   -0.00151   0.25159
  94                   -0.00176   0.28304
  95                   -0.00200   0.31448
  96                   -0.00224   0.34593
  97                   -0.00248   0.37739
  98                   -0.00271   0.40885
  99                   -0.00293   0.44030
 100                   -0.00315   0.47176
 101                   -0.00337   0.50322
 102                   -0.00358   0.53468
 103                   -0.00378   0.56614
 104                   -0.00398   0.59760
 105                   -0.00418   0.62905
 106                   -0.00438   0.66051
 107                   -0.00457   0.69197
 108                   -0.00475   0.72343
 109                   -0.00493   0.75489
 110                   -0.00511   0.78635
 111                   -0.00528   0.81781
 112                   -0.00545   0.84927
 113                   -0.00562   0.88073
 114                   -0.00578   0.91219
 115                   -0.00594   0.94365
 116                   -0.00609   0.97511
 117                   -0.00625   1.00657
 118                   -0.00640   1.03803
 119                   -0.00654   1.06949
 120                   -0.00668   1.10095
 121                   -0.00682   1.13240
 122                   -0.00696   1.16386
 123                   -0.00710   1.19532
 124                   -0.00723   1.22678
 125                   -0.00736   1.25824
 126                   -0.00748   1.28970
 127                   -0.00761   1.32116
 128                   -0.00773   1.35262
 129                   -0.00785   1.38408
 130                   -0.00797   1.41554
 131                   -0.00808   1.44700
 132                   -0.00820   1.47846
 133                   -0.00831   1.50992
 134                   -0.00842   1.54138
 135                   -0.00852   1.57284
 136                   -0.00863   1.60430
 137                   -0.00874   1.63576
 138                   -0.00884   1.66722
 139                   -0.00894   1.69868
 140                   -0.00904   1.73014
 141                   -0.00914   1.76160
 142                   -0.00923   1.79306
 143                   -0.00933   1.82452
 144                   -0.00942   1.85598
 145                   -0.00951   1.88744
 146                   -0.00961   1.91890
 147                   -0.00970   1.95036
 148                   -0.00978   1.98182
 149                   -0.00987   2.01328
 150                   -0.00996   2.04474
 151                   -0.01004   2.07620
 152                   -0.01013   2.10766
 153                   -0.01021   2.13912
 154                   -0.01029   2.17058
 155                   -0.01038   2.20204
 156                   -0.01046   2.23350
 157                   -0.01054   2.26496
 158                   -0.01061   2.29642
 159                   -0.01069   2.32788
 160                   -0.01077   2.35934
 161                   -0.01084   2.39080
 162                   -0.01092   2.42226
 163                   -0.01099   2.45372
 164                   -0.01107   2.48518
 165                   -0.01114   2.51664
 166                   -0.01121   2.54810
 167                   -0.01128   2.57956
 168                   -0.01135   2.61102
 169                   -0.01142   2.64248
 170                   -0.01149   2.67394
 171                   -0.01155   2.70540
 172                   -0.01162   2.73686
 173                   -0.01168   2.76832
 174                   -0.01175   2.79978
 175                   -0.01181   2.83124
 176                   -0.01188   2.86270
 177                   -0.01194   2.89416
 178                   -0.01200   2.92562
 179                   -0.01206   2.95708
 180                   -0.01212   2.98854
 181                   -0.01218   3.02000
 182                   -0.01224   3.05146
 183                   -0.01229   3.08292
 184                   -0.01235   3.11438
 185                   -0.01241   3.14584
 --------------------------------------------------------------------------
 
 Total number of points:                  184
 Total number of gradient calculations:   185
 Total number of Hessian calculations:    185
 IRC-IRC-IRC-IRC-IRC-IRC-IRC-IRC-IRC-IRC-IRC-IRC-IRC-IRC-IRC-IRC-IRC-IRC
 Leave Link  123 at Sat Mar 16 10:40:45 2024, MaxMem=   104857600 cpu:               0.0 elap:               0.0
 (Enter /opt/g16/l202.exe)
                          Input orientation:                          
 ---------------------------------------------------------------------
 Center     Atomic      Atomic             Coordinates (Angstroms)
 Number     Number       Type             X           Y           Z
 ---------------------------------------------------------------------
      1          1           0       -1.044145   -0.764948    0.977943
      2          1           0        0.993575    1.004009    1.829163
      3          1           0        0.277135   -0.248044    2.870142
      4          1           0        1.235911   -0.707217    1.428747
      5          6           0        0.534514    0.018482    1.843498
      6         17           0        0.069597   -0.035639   -1.311619
      7          8           0       -0.645405    0.108978    1.036434
 ---------------------------------------------------------------------
                    Distance matrix (angstroms):
                    1          2          3          4          5
     1  H    0.000000
     2  H    2.829503   0.000000
     3  H    2.365034   1.778921   0.000000
     4  H    2.324912   1.774079   1.791008   0.000000
     5  C    1.963443   1.087293   1.091457   1.091154   0.000000
     6  Cl   2.648473   3.434985   4.192292   3.053017   3.189646
     7  O    0.962373   2.028732   2.083514   2.087926   1.432393
                    6          7
     6  Cl   0.000000
     7  O    2.458759   0.000000
 Symmetry turned off by external request.
 Stoichiometry    CH4ClO(2)
 Framework group  C1[X(CH4ClO)]
 Deg. of freedom    15
 Full point group                 C1      NOp   1
 Rotational constants (GHZ):          31.0282064           3.7370183           3.4409161
 Leave Link  202 at Sat Mar 16 10:40:45 2024, MaxMem=   104857600 cpu:               0.0 elap:               0.0
 (Enter /opt/g16/l601.exe)
 Leave Link  601 at Sat Mar 16 10:40:45 2024, MaxMem=   104857600 cpu:               0.0 elap:               0.0
 (Enter /opt/g16/l9999.exe)

 This type of calculation cannot be archived.


 Money is a good servant but a bad master.
                        -- French Proverb
 Job cpu time:       0 days  0 hours  0 minutes 34.5 seconds.
 Elapsed time:       0 days  0 hours  3 minutes 22.0 seconds.
 File lengths (MBytes):  RWF=      6 Int=      0 D2E=      0 Chk=      2 Scr=      1
 Normal termination of Gaussian 16 at Sat Mar 16 10:40:45 2024.
