 Entering Gaussian System, Link 0=g16
 Initial command:
 /opt/g16/l1.exe "/home/jh-li/scratch/g16/Gau-21124.inp" -scrdir="/home/jh-li/scratch/g16/"
 Entering Link 1 = /opt/g16/l1.exe PID=     21127.
  
 Copyright (c) 1988-2019, Gaussian, Inc.  All Rights Reserved.
  
 This is part of the Gaussian(R) 16 program.  It is based on
 the Gaussian(R) 09 system (copyright 2009, Gaussian, Inc.),
 the Gaussian(R) 03 system (copyright 2003, Gaussian, Inc.),
 the Gaussian(R) 98 system (copyright 1998, Gaussian, Inc.),
 the Gaussian(R) 94 system (copyright 1995, Gaussian, Inc.),
 the Gaussian 92(TM) system (copyright 1992, Gaussian, Inc.),
 the Gaussian 90(TM) system (copyright 1990, Gaussian, Inc.),
 the Gaussian 88(TM) system (copyright 1988, Gaussian, Inc.),
 the Gaussian 86(TM) system (copyright 1986, Carnegie Mellon
 University), and the Gaussian 82(TM) system (copyright 1983,
 Carnegie Mellon University). Gaussian is a federally registered
 trademark of Gaussian, Inc.
  
 This software contains proprietary and confidential information,
 including trade secrets, belonging to Gaussian, Inc.
  
 This software is provided under written license and may be
 used, copied, transmitted, or stored only in accord with that
 written license.
  
 The following legend is applicable only to US Government
 contracts under FAR:
  
                    RESTRICTED RIGHTS LEGEND
  
 Use, reproduction and disclosure by the US Government is
 subject to restrictions as set forth in subparagraphs (a)
 and (c) of the Commercial Computer Software - Restricted
 Rights clause in FAR 52.227-19.
  
 Gaussian, Inc.
 340 Quinnipiac St., Bldg. 40, Wallingford CT 06492
  
  
 ---------------------------------------------------------------
 Warning -- This program may not be used in any manner that
 competes with the business of Gaussian, Inc. or will provide
 assistance to any competitor of Gaussian, Inc.  The licensee
 of this program is prohibited from giving any competitor of
 Gaussian, Inc. access to this program.  By using this program,
 the user acknowledges that Gaussian, Inc. is engaged in the
 business of creating and licensing software in the field of
 computational chemistry and represents and warrants to the
 licensee that it is not a competitor of Gaussian, Inc. and that
 it will not use this program in any manner prohibited above.
 ---------------------------------------------------------------
  

 Cite this work as:
 Gaussian 16, Revision C.01,
 M. J. Frisch, G. W. Trucks, H. B. Schlegel, G. E. Scuseria, 
 M. A. Robb, J. R. Cheeseman, G. Scalmani, V. Barone, 
 G. A. Petersson, H. Nakatsuji, X. Li, M. Caricato, A. V. Marenich, 
 J. Bloino, B. G. Janesko, R. Gomperts, B. Mennucci, H. P. Hratchian, 
 J. V. Ortiz, A. F. Izmaylov, J. L. Sonnenberg, D. Williams-Young, 
 F. Ding, F. Lipparini, F. Egidi, J. Goings, B. Peng, A. Petrone, 
 T. Henderson, D. Ranasinghe, V. G. Zakrzewski, J. Gao, N. Rega, 
 G. Zheng, W. Liang, M. Hada, M. Ehara, K. Toyota, R. Fukuda, 
 J. Hasegawa, M. Ishida, T. Nakajima, Y. Honda, O. Kitao, H. Nakai, 
 T. Vreven, K. Throssell, J. A. Montgomery, Jr., J. E. Peralta, 
 F. Ogliaro, M. J. Bearpark, J. J. Heyd, E. N. Brothers, K. N. Kudin, 
 V. N. Staroverov, T. A. Keith, R. Kobayashi, J. Normand, 
 K. Raghavachari, A. P. Rendell, J. C. Burant, S. S. Iyengar, 
 J. Tomasi, M. Cossi, J. M. Millam, M. Klene, C. Adamo, R. Cammi, 
 J. W. Ochterski, R. L. Martin, K. Morokuma, O. Farkas, 
 J. B. Foresman, and D. J. Fox, Gaussian, Inc., Wallingford CT, 2019.
 
 ******************************************
 Gaussian 16:  ES64L-G16RevC.01  3-Jul-2019
                16-Mar-2024 
 ******************************************
 %nproc=1
 Will use up to    1 processors via shared memory.
 %chk=ts1-opt-freq.chk
 ----------------------------------------------------------------------
 #p external="python3 -u ../pes/h4cclo_pes.py" opt=(nomicro,ts,noeigen,
 calcall)
 ----------------------------------------------------------------------
 1/5=1,10=4,11=1,18=20,26=1,38=1/1,3;
 2/9=110,12=2,17=6,18=5,40=1/2;
 3/11=9,25=1,30=1,41=9900000,43=2,71=2,140=1/1;
 4/20=17,22=2,24=3,113=1,114=1/2;
 6/7=2,8=2,9=2,10=2,18=1/1;
 7/25=1,44=-1/16;
 1/5=1,10=4,11=1,18=20,26=1/3(3);
 2/9=110/2;
 7/8=1,9=1,25=1,44=-1/16;
 99//99;
 2/9=110/2;
 3/11=9,25=1,30=1,41=9900000,43=2,71=2,140=1/1;
 4/16=2,20=17,22=2,24=3,113=1,114=1/2;
 7/25=1,44=-1/16;
 1/5=1,10=4,11=1,18=20,26=1/3(-4);
 2/9=110/2;
 6/7=2,8=2,9=2,10=2,18=1/1;
 7/8=1,9=1,25=1,44=-1/16;
 99//99;
 Leave Link    1 at Sat Mar 16 10:36:24 2024, MaxMem=           0 cpu:               0.0 elap:               0.0
 (Enter /opt/g16/l101.exe)
 ------------------------
 Cl + CH3OH -> HCl + CH3O
 ------------------------
 Symbolic Z-matrix:
 Charge =  0 Multiplicity = 2
 H                    -0.50802  -0.28625  -0.00183 
 H                     1.01045   0.97522   1.81082 
 H                     0.23884  -0.18956   2.8949 
 H                     1.19522  -0.78937   1.50241 
 C                     0.52755  -0.00327   1.85397 
 Cl                    0.07521   0.00388  -1.32252 
 O                    -0.68469   0.01213   1.14777 
 
 Add virtual bond connecting atoms O7         and H1         Dist= 2.27D+00.
 ITRead=  0  0  0  0  0  0  0
 MicOpt= -1 -1 -1 -1 -1 -1 -1
 NAtoms=      7 NQM=        7 NQMF=       0 NMMI=      0 NMMIF=      0
                NMic=       0 NMicF=      0.
                    Isotopes and Nuclear Properties:
 (Nuclear quadrupole moments (NQMom) in fm**2, nuclear magnetic moments (NMagM)
  in nuclear magnetons)

  Atom         1           2           3           4           5           6           7
 IAtWgt=           1           1           1           1          12          35          16
 AtmWgt=   1.0078250   1.0078250   1.0078250   1.0078250  12.0000000  34.9688527  15.9949146
 NucSpn=           1           1           1           1           0           3           0
 AtZEff=  -0.0000000  -0.0000000  -0.0000000  -0.0000000  -0.0000000  -0.0000000  -0.0000000
 NQMom=    0.0000000   0.0000000   0.0000000   0.0000000   0.0000000  -8.1650000   0.0000000
 NMagM=    2.7928460   2.7928460   2.7928460   2.7928460   0.0000000   0.8218740   0.0000000
 AtZNuc=   1.0000000   1.0000000   1.0000000   1.0000000   6.0000000  17.0000000   8.0000000
 Leave Link  101 at Sat Mar 16 10:36:24 2024, MaxMem=   104857600 cpu:               0.1 elap:               0.1
 (Enter /opt/g16/l103.exe)

 GradGradGradGradGradGradGradGradGradGradGradGradGradGradGradGradGradGrad
 Berny optimization.
 Initialization pass.
                           ----------------------------
                           !    Initial Parameters    !
                           ! (Angstroms and Degrees)  !
 --------------------------                            --------------------------
 ! Name  Definition              Value          Derivative Info.                !
 --------------------------------------------------------------------------------
 ! R1    R(1,6)                  1.4726         calculate D2E/DX2 analytically  !
 ! R2    R(1,7)                  1.2008         calculate D2E/DX2 analytically  !
 ! R3    R(2,5)                  1.092          calculate D2E/DX2 analytically  !
 ! R4    R(3,5)                  1.0962         calculate D2E/DX2 analytically  !
 ! R5    R(4,5)                  1.0896         calculate D2E/DX2 analytically  !
 ! R6    R(5,7)                  1.403          calculate D2E/DX2 analytically  !
 ! A1    A(6,1,7)              150.2205         calculate D2E/DX2 analytically  !
 ! A2    A(2,5,3)              107.8342         calculate D2E/DX2 analytically  !
 ! A3    A(2,5,4)              111.2674         calculate D2E/DX2 analytically  !
 ! A4    A(2,5,7)              110.6316         calculate D2E/DX2 analytically  !
 ! A5    A(3,5,4)              110.1912         calculate D2E/DX2 analytically  !
 ! A6    A(3,5,7)              104.6119         calculate D2E/DX2 analytically  !
 ! A7    A(4,5,7)              112.0209         calculate D2E/DX2 analytically  !
 ! A8    A(1,7,5)              110.6126         calculate D2E/DX2 analytically  !
 ! D1    D(6,1,7,5)            -65.31           calculate D2E/DX2 analytically  !
 ! D2    D(2,5,7,1)             89.7206         calculate D2E/DX2 analytically  !
 ! D3    D(3,5,7,1)           -154.4084         calculate D2E/DX2 analytically  !
 ! D4    D(4,5,7,1)            -35.0545         calculate D2E/DX2 analytically  !
 --------------------------------------------------------------------------------
 Trust Radius=3.00D-01 FncErr=1.00D-07 GrdErr=1.00D-07 EigMax=2.50D+02 EigMin=1.00D-04
 Number of steps in this run=     28 maximum allowed number of steps=    100.
 Search for a saddle point of order  1.
 GradGradGradGradGradGradGradGradGradGradGradGradGradGradGradGradGradGrad

 Leave Link  103 at Sat Mar 16 10:36:24 2024, MaxMem=   104857600 cpu:               0.0 elap:               0.0
 (Enter /opt/g16/l202.exe)
                          Input orientation:                          
 ---------------------------------------------------------------------
 Center     Atomic      Atomic             Coordinates (Angstroms)
 Number     Number       Type             X           Y           Z
 ---------------------------------------------------------------------
      1          1           0       -0.508024   -0.286252   -0.001829
      2          1           0        1.010449    0.975221    1.810824
      3          1           0        0.238838   -0.189560    2.894896
      4          1           0        1.195221   -0.789367    1.502412
      5          6           0        0.527550   -0.003270    1.853966
      6         17           0        0.075207    0.003879   -1.322518
      7          8           0       -0.684686    0.012126    1.147772
 ---------------------------------------------------------------------
                    Distance matrix (angstroms):
                    1          2          3          4          5
     1  H    0.000000
     2  H    2.680071   0.000000
     3  H    2.993019   1.768420   0.000000
     4  H    2.327425   1.800841   1.792609   0.000000
     5  C    2.143937   1.092015   1.096173   1.089643   0.000000
     6  Cl   1.472601   3.411160   4.225017   3.140685   3.208538
     7  O    1.200759   2.059288   1.986458   2.074177   1.403019
                    6          7
     6  Cl   0.000000
     7  O    2.584538   0.000000
 Stoichiometry    CH4ClO(2)
 Framework group  C1[X(CH4ClO)]
 Deg. of freedom    15
 Full point group                 C1      NOp   1
 Largest Abelian subgroup         C1      NOp   1
 Largest concise Abelian subgroup C1      NOp   1
                         Standard orientation:                         
 ---------------------------------------------------------------------
 Center     Atomic      Atomic             Coordinates (Angstroms)
 Number     Number       Type             X           Y           Z
 ---------------------------------------------------------------------
      1          1           0        0.134020    0.532958   -0.276034
      2          1           0       -1.726667   -0.941155    0.968000
      3          1           0       -2.785037   -0.122453   -0.188239
      4          1           0       -1.423346   -1.115845   -0.798496
      5          6           0       -1.753912   -0.446189   -0.005018
      6         17           0        1.435343   -0.095189    0.007766
      7          8           0       -1.009541    0.742729    0.024106
 ---------------------------------------------------------------------
 Rotational constants (GHZ):          32.5413102           3.6303785           3.3397549
 Leave Link  202 at Sat Mar 16 10:36:24 2024, MaxMem=   104857600 cpu:               0.0 elap:               0.0
 (Enter /opt/g16/l301.exe)
 Standard basis: STO-3G (5D, 7F)
 Ernie: Thresh=  0.10000D-02 Tol=  0.10000D-05 Strict=F.
 There are    23 symmetry adapted cartesian basis functions of A   symmetry.
 There are    23 symmetry adapted basis functions of A   symmetry.
    23 basis functions,    69 primitive gaussians,    23 cartesian basis functions
    18 alpha electrons       17 beta electrons
       nuclear repulsion energy        97.9544630676 Hartrees.
 IExCor=    0 DFT=F Ex=HF Corr=None ExCW=0 ScaHFX=  1.000000
 ScaDFX=  1.000000  1.000000  1.000000  1.000000 ScalE2=  1.000000  1.000000
 IRadAn=      5 IRanWt=     -1 IRanGd=            0 ICorTp=0 IEmpDi=  4
 NAtoms=    7 NActive=    7 NUniq=    7 SFac= 1.00D+00 NAtFMM=   60 NAOKFM=F Big=F
 Integral buffers will be    131072 words long.
 Raffenetti 2 integral format.
 Two-electron integral symmetry is turned on.
 Leave Link  301 at Sat Mar 16 10:36:24 2024, MaxMem=   104857600 cpu:               0.1 elap:               0.1
 (Enter /opt/g16/l402.exe)
 External calculation of energy, first and second derivatives.
 Running external command "python3 -u ../pes/h4cclo_pes.py R"
         input file       "/home/jh-li/scratch/g16/Gau-21127.EIn"
         output file      "/home/jh-li/scratch/g16/Gau-21127.EOu"
         message file     "/home/jh-li/scratch/g16/Gau-21127.EMs"
         fchk file        "/home/jh-li/scratch/g16/Gau-21127.EFC"
         mat. el file     "/home/jh-li/scratch/g16/Gau-21127.EUF"
 Recovered energy= -575.279204926     dipole=      0.000000000000      0.000000000000      0.000000000000
 Energy=    -575.279205     NIter=   0.
 Dipole moment=       0.000000       0.000000       0.000000
 Leave Link  402 at Sat Mar 16 10:36:25 2024, MaxMem=   104857600 cpu:               0.0 elap:               0.8
 (Enter /opt/g16/l601.exe)
 Leave Link  601 at Sat Mar 16 10:36:25 2024, MaxMem=   104857600 cpu:               0.0 elap:               0.0
 (Enter /opt/g16/l716.exe)
 Dipole        = 0.00000000D+00 0.00000000D+00 0.00000000D+00
 ***** Axes restored to original set *****
 -------------------------------------------------------------------
 Center     Atomic                   Forces (Hartrees/Bohr)
 Number     Number              X              Y              Z
 -------------------------------------------------------------------
      1        1          -0.002198856   -0.000938674    0.000165126
      2        1          -0.000970309    0.003139281    0.002543886
      3        1          -0.004156190    0.000567112    0.000438320
      4        1          -0.002840581   -0.000274888    0.000770432
      5        6           0.008027261   -0.002183805   -0.007288466
      6       17          -0.000872306    0.000294576    0.005317352
      7        8           0.002992750   -0.000599483   -0.001949233
 -------------------------------------------------------------------
 Cartesian Forces:  Max     0.008027261 RMS     0.003193013
 Force constants in Cartesian coordinates: 
                1             2             3             4             5 
      1  0.304684D-01
      2  0.121004D-01  0.249292D-01
      3  0.343203D-01 -0.202239D-02 -0.107215D+00
      4  0.218868D-02  0.380886D-03 -0.100460D-01  0.112028D+00
      5 -0.404692D-03 -0.907809D-03  0.775371D-03  0.116409D+00  0.295410D+00
      6 -0.433339D-02  0.802394D-03 -0.223032D-02  0.566887D-04 -0.116676D-01
      7 -0.133649D-02  0.277048D-02 -0.108497D-01 -0.460189D-02 -0.296963D-02
      8 -0.311398D-02  0.219175D-02  0.215620D-02 -0.374214D-02 -0.622944D-02
      9 -0.329463D-02  0.199734D-02  0.433433D-02 -0.165168D-02 -0.186896D-02
     10  0.407557D-02 -0.170493D-02 -0.720968D-02  0.121714D-01 -0.168605D-01
     11 -0.269651D-02  0.505094D-02  0.553481D-03  0.248587D-01 -0.176180D-01
     12  0.863929D-03 -0.226167D-03 -0.708723D-02 -0.149993D-02  0.798103D-02
     13  0.832855D-02  0.389842D-02 -0.891359D-02 -0.941571D-01 -0.854602D-01
     14 -0.150434D-02 -0.564592D-02 -0.504364D-02 -0.113325D+00 -0.276076D+00
     15 -0.424886D-02  0.284880D-02 -0.181448D-01  0.869119D-02  0.812533D-02
     16 -0.138298D-01 -0.166958D-01 -0.117572D-01 -0.224003D-02 -0.183655D-02
     17 -0.286843D-02 -0.114804D-01 -0.126141D-01 -0.219803D-02  0.155133D-02
     18  0.177614D-01  0.377792D-01  0.136209D-01  0.512423D-02  0.947453D-02
     19 -0.298700D-01 -0.750507D-03  0.144277D-01 -0.253730D-01 -0.889732D-02
     20 -0.152012D-02 -0.141289D-01  0.161969D-01 -0.223586D-01  0.390583D-02
     21 -0.411040D-01 -0.411733D-01  0.116798D+00 -0.675229D-03 -0.128136D-01
                6             7             8             9            10 
      6  0.468426D-01
      7  0.133482D-01  0.774704D-01
      8  0.284908D-01  0.122013D-01  0.502388D-01
      9 -0.589204D-04 -0.747725D-01 -0.488850D-01  0.316981D+00
     10 -0.391031D-02 -0.445377D-02  0.396756D-02 -0.242711D-02  0.166202D+00
     11 -0.966934D-02 -0.792921D-02  0.469583D-02  0.616054D-02 -0.130580D+00
     12 -0.128246D-02  0.196493D-01 -0.239591D-01 -0.316070D-02 -0.555130D-01
     13  0.137038D-01 -0.687348D-01 -0.105596D-01  0.940989D-01 -0.144315D+00
     14  0.115728D-01 -0.440579D-02 -0.416952D-01  0.421045D-01  0.125162D+00
     15 -0.310443D-01  0.791306D-01  0.466113D-01 -0.286539D+00  0.569971D-01
     16 -0.108182D-03  0.895933D-03  0.103143D-02 -0.164450D-02 -0.216133D-02
     17 -0.124478D-02 -0.161006D-02 -0.645915D-03  0.420509D-03 -0.108330D-02
     18 -0.196988D-02 -0.368460D-02 -0.153754D-02  0.504915D-02  0.493818D-02
     19 -0.187730D-01  0.792687D-03  0.216246D-03 -0.103349D-01 -0.314981D-01
     20 -0.182779D-01  0.193862D-02 -0.856940D-02  0.674328D-04  0.210830D-01
     21 -0.102624D-01 -0.228182D-01 -0.288314D-02 -0.365654D-01  0.712870D-02
               11            12            13            14            15 
     11  0.209124D+00
     12  0.749432D-01  0.855419D-01
     13  0.113090D+00  0.610331D-01  0.500952D+00
     14 -0.195362D+00 -0.781032D-01 -0.241755D-01  0.547381D+00
     15 -0.751358D-01 -0.761594D-01 -0.923592D-01  0.295949D-01  0.470366D+00
     16  0.981007D-03 -0.180854D-02  0.123191D-03  0.158413D-02  0.148520D-02
     17 -0.125181D-02  0.457598D-03 -0.243046D-02 -0.928148D-03 -0.336201D-02
     18 -0.311724D-02 -0.552612D-03 -0.642110D-02 -0.573440D-02 -0.139859D-01
     19  0.228788D-02 -0.227360D-01 -0.202323D+00  0.166704D-01 -0.496544D-01
     20 -0.462398D-02  0.189097D-01  0.564201D-02 -0.276783D-01 -0.868523D-02
     21  0.626267D-02  0.270523D-02 -0.611519D-01  0.561087D-02 -0.445066D-01
               16            17            18            19            20 
     16  0.202845D-01
     17  0.638675D-02  0.507006D-02
     18 -0.350585D-01 -0.153810D-01  0.988438D-01
     19 -0.307851D-02  0.380001D-02  0.173382D-01  0.291389D+00
     20  0.855071D-02  0.768382D-02 -0.214818D-01 -0.133298D-01  0.433707D-01
     21  0.489079D-01  0.317283D-01 -0.101024D+00  0.697551D-01  0.132617D-01
               21 
     21  0.727734D-01
 FormGI is forming the generalized inverse of G from B-inverse, IUseBI=4.
 Force constants in internal coordinates: 
                1             2             3             4             5 
      1  0.114234D+00
      2  0.128677D+00  0.204895D-01
      3 -0.106665D-01 -0.708502D-02  0.352223D+00
      4 -0.599679D-02 -0.131261D-01  0.517365D-03  0.346922D+00
      5 -0.544551D-02 -0.128361D-02 -0.478133D-02 -0.492875D-02  0.352420D+00
      6  0.199504D-02  0.478093D-01  0.195948D-01  0.202075D-01  0.853419D-02
      7  0.220805D-01 -0.506930D-02 -0.906081D-02 -0.606641D-02 -0.409653D-02
      8 -0.133371D-02 -0.590187D-02  0.695415D-02  0.573694D-02 -0.378898D-02
      9  0.233094D-02 -0.941454D-02  0.811094D-02 -0.283725D-02  0.748404D-02
     10 -0.327973D-03  0.116229D-01  0.605973D-02 -0.851486D-02 -0.699193D-02
     11  0.580072D-03 -0.121952D-01 -0.539030D-02  0.521084D-02  0.683066D-02
     12  0.355612D-02  0.121555D-01 -0.118323D-01  0.480172D-02 -0.728255D-02
     13 -0.465584D-02  0.438246D-02 -0.475449D-02 -0.344044D-02  0.270895D-02
     14  0.165057D-01  0.133964D-01 -0.341870D-02  0.334825D-02 -0.103196D-01
     15 -0.294113D-02 -0.558836D-02  0.508502D-03 -0.763485D-03  0.209591D-03
     16  0.229508D-03 -0.250238D-02  0.147135D-02 -0.668771D-02  0.825568D-02
     17  0.454089D-03  0.271563D-02  0.601074D-02 -0.139092D-02 -0.344138D-02
     18  0.870289D-03 -0.219248D-02 -0.101886D-01  0.598448D-02  0.173722D-02
                6             7             8             9            10 
      6  0.316443D+00
      7  0.294352D-01  0.210816D-01
      8 -0.370133D-01 -0.621485D-02  0.660870D-01
      9 -0.237381D-01 -0.707003D-02  0.403571D-02  0.771529D-01
     10  0.327042D-01  0.110586D-01 -0.380119D-01 -0.474295D-01  0.125011D+00
     11 -0.298030D-01 -0.304224D-02  0.257252D-02  0.166685D-02  0.882925D-02
     12  0.198979D-01  0.623453D-02 -0.368980D-01  0.369196D-02 -0.187499D-01
     13  0.371031D-01 -0.478762D-03  0.290128D-02 -0.424375D-01 -0.282706D-01
     14  0.291040D-01  0.180452D-01 -0.162145D-01 -0.309196D-02  0.122125D-01
     15 -0.984734D-03 -0.752524D-02 -0.614392D-03 -0.786484D-03  0.406469D-03
     16  0.130751D-01 -0.177231D-04 -0.206021D-01  0.152960D-01  0.656762D-02
     17 -0.387753D-02  0.134195D-02  0.185465D-01 -0.379758D-03  0.109891D-01
     18 -0.796362D-02  0.124519D-02  0.630429D-03 -0.184709D-01 -0.474878D-02
               11            12            13            14            15 
     11  0.701691D-01
     12 -0.448616D-01  0.128615D+00
     13 -0.382376D-01 -0.264640D-01  0.128969D+00
     14 -0.859492D-02  0.902937D-02  0.623725D-02  0.139112D+00
     15  0.181341D-02  0.214290D-02 -0.269007D-02 -0.130451D-01  0.912111D-02
     16  0.273167D-03 -0.178184D-01  0.128578D-01  0.667321D-02 -0.471913D-03
     17 -0.169949D-01  0.297057D-03 -0.115252D-01 -0.158150D-02  0.169899D-03
     18  0.197034D-01  0.110505D-01 -0.567242D-02 -0.310033D-02  0.223868D-02
               16            17            18 
     16  0.224788D-01
     17 -0.819657D-02  0.188231D-01
     18 -0.119790D-01 -0.746435D-02  0.199479D-01
 Leave Link  716 at Sat Mar 16 10:36:25 2024, MaxMem=   104857600 cpu:               0.0 elap:               0.0
 (Enter /opt/g16/l103.exe)

 GradGradGradGradGradGradGradGradGradGradGradGradGradGradGradGradGradGrad
 Berny optimization.
 Red2BG is reusing G-inverse.
 Internal  Forces:  Max     0.007139732 RMS     0.003207166
 Search for a saddle point.
 Step number   1 out of a maximum of   28
 All quantities printed in internal units (Hartrees-Bohrs-Radians)
 Swapping is turned off.
 Second derivative matrix not updated -- analytic derivatives used.
 The second derivative matrix:
                          R1        R2        R3        R4        R5
           R1           0.11423
           R2           0.12868   0.02049
           R3          -0.01067  -0.00709   0.35222
           R4          -0.00600  -0.01313   0.00052   0.34692
           R5          -0.00545  -0.00128  -0.00478  -0.00493   0.35242
           R6           0.00200   0.04781   0.01959   0.02021   0.00853
           A1           0.02208  -0.00507  -0.00906  -0.00607  -0.00410
           A2          -0.00133  -0.00590   0.00695   0.00574  -0.00379
           A3           0.00233  -0.00941   0.00811  -0.00284   0.00748
           A4          -0.00033   0.01162   0.00606  -0.00851  -0.00699
           A5           0.00058  -0.01220  -0.00539   0.00521   0.00683
           A6           0.00356   0.01216  -0.01183   0.00480  -0.00728
           A7          -0.00466   0.00438  -0.00475  -0.00344   0.00271
           A8           0.01651   0.01340  -0.00342   0.00335  -0.01032
           D1          -0.00294  -0.00559   0.00051  -0.00076   0.00021
           D2           0.00023  -0.00250   0.00147  -0.00669   0.00826
           D3           0.00045   0.00272   0.00601  -0.00139  -0.00344
           D4           0.00087  -0.00219  -0.01019   0.00598   0.00174
                          R6        A1        A2        A3        A4
           R6           0.31644
           A1           0.02944   0.02108
           A2          -0.03701  -0.00621   0.06609
           A3          -0.02374  -0.00707   0.00404   0.07715
           A4           0.03270   0.01106  -0.03801  -0.04743   0.12501
           A5          -0.02980  -0.00304   0.00257   0.00167   0.00883
           A6           0.01990   0.00623  -0.03690   0.00369  -0.01875
           A7           0.03710  -0.00048   0.00290  -0.04244  -0.02827
           A8           0.02910   0.01805  -0.01621  -0.00309   0.01221
           D1          -0.00098  -0.00753  -0.00061  -0.00079   0.00041
           D2           0.01308  -0.00002  -0.02060   0.01530   0.00657
           D3          -0.00388   0.00134   0.01855  -0.00038   0.01099
           D4          -0.00796   0.00125   0.00063  -0.01847  -0.00475
                          A5        A6        A7        A8        D1
           A5           0.07017
           A6          -0.04486   0.12861
           A7          -0.03824  -0.02646   0.12897
           A8          -0.00859   0.00903   0.00624   0.13911
           D1           0.00181   0.00214  -0.00269  -0.01305   0.00912
           D2           0.00027  -0.01782   0.01286   0.00667  -0.00047
           D3          -0.01699   0.00030  -0.01153  -0.00158   0.00017
           D4           0.01970   0.01105  -0.00567  -0.00310   0.00224
                          D2        D3        D4
           D2           0.02248
           D3          -0.00820   0.01882
           D4          -0.01198  -0.00746   0.01995
 ITU=  0
     Eigenvalues ---   -0.07901   0.00085   0.00634   0.02088   0.06993
     Eigenvalues ---    0.07420   0.12276   0.13715   0.17065   0.17385
     Eigenvalues ---    0.20144   0.34247   0.35225   0.35702   0.37852
 Eigenvectors required to have negative eigenvalues:
                          R2        R1        A1        R6        D1
   1                   -0.79616   0.55094  -0.20749   0.10104  -0.04835
                          A5        A4        A3        A6        D2
   1                   -0.03843   0.03804  -0.03669   0.02991  -0.02800
 RFO step:  Lambda0=4.872276754D-05 Lambda=-1.98414787D-03.
 Linear search not attempted -- option 19 set.
 Iteration  1 RMS(Cart)=  0.06659995 RMS(Int)=  0.00493405
 Iteration  2 RMS(Cart)=  0.00589072 RMS(Int)=  0.00016813
 Iteration  3 RMS(Cart)=  0.00001845 RMS(Int)=  0.00016764
 Iteration  4 RMS(Cart)=  0.00000000 RMS(Int)=  0.00016764
 ITry= 1 IFail=0 DXMaxC= 1.48D-01 DCOld= 1.00D+10 DXMaxT= 3.00D-01 DXLimC= 3.00D+00 Rises=F
 Variable       Old X    -DE/DX   Delta X   Delta X   Delta X     New X
                                 (Linear)    (Quad)   (Total)
    R1        2.78281  -0.00505   0.00000  -0.05612  -0.05612   2.72669
    R2        2.26910  -0.00554   0.00000   0.03935   0.03935   2.30846
    R3        2.06361   0.00228   0.00000  -0.00126  -0.00126   2.06235
    R4        2.07147   0.00142   0.00000   0.00322   0.00322   2.07469
    R5        2.05913  -0.00179   0.00000  -0.01284  -0.01284   2.04628
    R6        2.65132  -0.00174   0.00000   0.00627   0.00627   2.65760
    A1        2.62184  -0.00508   0.00000  -0.20394  -0.20394   2.41790
    A2        1.88206  -0.00026   0.00000  -0.01743  -0.01773   1.86433
    A3        1.94198   0.00376   0.00000   0.04019   0.03988   1.98187
    A4        1.93089   0.00120   0.00000   0.00491   0.00462   1.93551
    A5        1.92320   0.00192   0.00000   0.00612   0.00585   1.92905
    A6        1.82582  -0.00714   0.00000  -0.03925  -0.03952   1.78630
    A7        1.95513  -0.00012   0.00000  -0.00016  -0.00045   1.95468
    A8        1.93055   0.00121   0.00000   0.02754   0.02754   1.95810
    D1       -1.13987   0.00069   0.00000  -0.04973  -0.04973  -1.18960
    D2        1.56592   0.00355   0.00000   0.18705   0.18701   1.75293
    D3       -2.69493  -0.00007   0.00000   0.14762   0.14766  -2.54728
    D4       -0.61182  -0.00219   0.00000   0.13091   0.13091  -0.48091
         Item               Value     Threshold  Converged?
 Maximum Force            0.007140     0.000450     NO 
 RMS     Force            0.003207     0.000300     NO 
 Maximum Displacement     0.148205     0.001800     NO 
 RMS     Displacement     0.068828     0.001200     NO 
 Predicted change in Energy=-1.093248D-03
 GradGradGradGradGradGradGradGradGradGradGradGradGradGradGradGradGradGrad

 Leave Link  103 at Sat Mar 16 10:36:25 2024, MaxMem=   104857600 cpu:               0.0 elap:               0.0
 (Enter /opt/g16/l202.exe)
                          Input orientation:                          
 ---------------------------------------------------------------------
 Center     Atomic      Atomic             Coordinates (Angstroms)
 Number     Number       Type             X           Y           Z
 ---------------------------------------------------------------------
      1          1           0       -0.555684   -0.364679   -0.012101
      2          1           0        1.028675    0.990094    1.854718
      3          1           0        0.216407   -0.202886    2.858079
      4          1           0        1.195132   -0.780243    1.472313
      5          6           0        0.549035    0.010022    1.833694
      6         17           0        0.087038    0.009206   -1.248666
      7          8           0       -0.666050    0.061262    1.127486
 ---------------------------------------------------------------------
                    Distance matrix (angstroms):
                    1          2          3          4          5
     1  H    0.000000
     2  H    2.798324   0.000000
     3  H    2.976615   1.757759   0.000000
     4  H    2.332709   1.818800   1.792092   0.000000
     5  C    2.183521   1.091346   1.097879   1.082846   0.000000
     6  Cl   1.442905   3.388187   4.114253   3.042174   3.116791
     7  O    1.221583   2.064870   1.960475   2.071481   1.406339
                    6          7
     6  Cl   0.000000
     7  O    2.493180   0.000000
 Stoichiometry    CH4ClO(2)
 Framework group  C1[X(CH4ClO)]
 Deg. of freedom    15
 Full point group                 C1      NOp   1
 RotChk:  IX=0 Diff= 3.33D-02
 Largest Abelian subgroup         C1      NOp   1
 Largest concise Abelian subgroup C1      NOp   1
                         Standard orientation:                         
 ---------------------------------------------------------------------
 Center     Atomic      Atomic             Coordinates (Angstroms)
 Number     Number       Type             X           Y           Z
 ---------------------------------------------------------------------
      1          1           0        0.178821    0.583577   -0.379488
      2          1           0       -1.755845   -0.916232    0.976335
      3          1           0       -2.719161   -0.080122   -0.233069
      4          1           0       -1.366182   -1.115474   -0.789026
      5          6           0       -1.709481   -0.448116   -0.008426
      6         17           0        1.387794   -0.100418    0.011038
      7          8           0       -0.959155    0.740507    0.036020
 ---------------------------------------------------------------------
 Rotational constants (GHZ):          32.3036166           3.8635673           3.5381789
 Leave Link  202 at Sat Mar 16 10:36:25 2024, MaxMem=   104857600 cpu:               0.0 elap:               0.0
 (Enter /opt/g16/l301.exe)
 Standard basis: STO-3G (5D, 7F)
 Ernie: Thresh=  0.10000D-02 Tol=  0.10000D-05 Strict=F.
 There are    23 symmetry adapted cartesian basis functions of A   symmetry.
 There are    23 symmetry adapted basis functions of A   symmetry.
    23 basis functions,    69 primitive gaussians,    23 cartesian basis functions
    18 alpha electrons       17 beta electrons
       nuclear repulsion energy        99.6660343275 Hartrees.
 IExCor=    0 DFT=F Ex=HF Corr=None ExCW=0 ScaHFX=  1.000000
 ScaDFX=  1.000000  1.000000  1.000000  1.000000 ScalE2=  1.000000  1.000000
 IRadAn=      5 IRanWt=     -1 IRanGd=            0 ICorTp=0 IEmpDi=  4
 NAtoms=    7 NActive=    7 NUniq=    7 SFac= 1.00D+00 NAtFMM=   60 NAOKFM=F Big=F
 Integral buffers will be    131072 words long.
 Raffenetti 2 integral format.
 Two-electron integral symmetry is turned on.
 Leave Link  301 at Sat Mar 16 10:36:25 2024, MaxMem=   104857600 cpu:               0.0 elap:               0.0
 (Enter /opt/g16/l402.exe)
 External calculation of energy, first and second derivatives.
 Running external command "python3 -u ../pes/h4cclo_pes.py R"
         input file       "/home/jh-li/scratch/g16/Gau-21127.EIn"
         output file      "/home/jh-li/scratch/g16/Gau-21127.EOu"
         message file     "/home/jh-li/scratch/g16/Gau-21127.EMs"
         fchk file        "/home/jh-li/scratch/g16/Gau-21127.EFC"
         mat. el file     "/home/jh-li/scratch/g16/Gau-21127.EUF"
 Recovered energy= -575.279910888     dipole=      0.000000000000      0.000000000000      0.000000000000
 Energy=    -575.279911     NIter=   0.
 Dipole moment=       0.000000       0.000000       0.000000
 Leave Link  402 at Sat Mar 16 10:36:26 2024, MaxMem=   104857600 cpu:               0.0 elap:               0.8
 (Enter /opt/g16/l716.exe)
 Dipole        = 0.00000000D+00 0.00000000D+00 0.00000000D+00
 ***** Axes restored to original set *****
 -------------------------------------------------------------------
 Center     Atomic                   Forces (Hartrees/Bohr)
 Number     Number              X              Y              Z
 -------------------------------------------------------------------
      1        1           0.000580877    0.000470276    0.002470136
      2        1           0.000247042   -0.000381265   -0.000479064
      3        1           0.000849293   -0.000566605   -0.000021687
      4        1           0.000542782   -0.000154241   -0.000085874
      5        6          -0.001379760    0.000635428    0.001702593
      6       17           0.000698549   -0.000049493   -0.003795904
      7        8          -0.001548440    0.000048464    0.000208578
 -------------------------------------------------------------------
 Cartesian Forces:  Max     0.003795904 RMS     0.001215256
 Force constants in Cartesian coordinates: 
                1             2             3             4             5 
      1  0.451930D-01
      2  0.237380D-01  0.445296D-01
      3  0.140020D-01 -0.132369D-01 -0.627182D-01
      4  0.226186D-02  0.144075D-03 -0.736476D-02  0.115005D+00
      5 -0.102975D-03 -0.165035D-03 -0.207542D-02  0.115305D+00  0.294976D+00
      6 -0.607148D-02 -0.869757D-03  0.140066D-02  0.674529D-02  0.214775D-02
      7  0.326140D-03  0.227456D-02 -0.906356D-02 -0.308438D-02 -0.474657D-02
      8 -0.289848D-02  0.530064D-03  0.194334D-02 -0.633498D-02 -0.697910D-02
      9 -0.337075D-02  0.287938D-02  0.174180D-02  0.142553D-03 -0.278408D-03
     10  0.397783D-02 -0.687528D-03 -0.442822D-02  0.135233D-01 -0.159869D-01
     11 -0.185016D-02  0.383214D-02  0.194938D-03  0.230001D-01 -0.142316D-01
     12  0.600532D-03  0.397984D-03 -0.279442D-02 -0.135643D-02  0.655106D-02
     13  0.121862D-02  0.700112D-03 -0.364063D-02 -0.102242D+00 -0.837636D-01
     14 -0.643360D-02 -0.406432D-02  0.771773D-03 -0.107340D+00 -0.281131D+00
     15 -0.560402D-03  0.210816D-02 -0.198898D-01  0.125196D-02 -0.469147D-02
     16 -0.258964D-01 -0.273455D-01  0.368610D-02 -0.142836D-02 -0.323838D-02
     17 -0.101990D-01 -0.215169D-01 -0.627779D-02 -0.231485D-02  0.778086D-03
     18  0.359217D-01  0.522232D-01 -0.235818D-01  0.206910D-02  0.121370D-01
     19 -0.270617D-01  0.117339D-02  0.678693D-02 -0.240140D-01 -0.748394D-02
     20 -0.226219D-02 -0.231408D-01  0.186813D-01 -0.224409D-01  0.678578D-02
     21 -0.405439D-01 -0.434935D-01  0.105872D+00 -0.148971D-02 -0.137780D-01
                6             7             8             9            10 
      6  0.507400D-01
      7  0.136019D-01  0.861112D-01
      8  0.293352D-01  0.150649D-01  0.569985D-01
      9 -0.508062D-03 -0.787601D-01 -0.540056D-01  0.302466D+00
     10 -0.599824D-02 -0.386784D-02  0.465455D-02  0.475479D-03  0.168331D+00
     11 -0.758698D-02 -0.941010D-02  0.736736D-02  0.734736D-02 -0.134274D+00
     12  0.000000D+00  0.183183D-01 -0.243395D-01 -0.342884D-02 -0.591522D-01
     13  0.121896D-01 -0.814579D-01 -0.118769D-01  0.951208D-01 -0.149721D+00
     14 -0.444596D-02 -0.441680D-02 -0.530581D-01  0.421342D-01  0.125037D+00
     15 -0.370794D-01  0.833819D-01  0.489743D-01 -0.266953D+00  0.596805D-01
     16  0.368580D-03  0.218713D-02  0.652598D-03 -0.196987D-02 -0.126929D-02
     17 -0.313558D-03 -0.181480D-02 -0.273440D-03  0.182082D-03 -0.151644D-02
     18  0.349166D-03 -0.745760D-02 -0.432888D-04  0.497637D-02  0.220909D-02
     19 -0.208518D-01 -0.180331D-03  0.736865D-03 -0.116568D-01 -0.309488D-01
     20 -0.182581D-01  0.304310D-02 -0.459419D-02  0.173752D-02  0.227629D-01
     21 -0.149049D-01 -0.200215D-01 -0.186943D-02 -0.382612D-01  0.721749D-02
               11            12            13            14            15 
     11  0.217301D+00
     12  0.801525D-01  0.905748D-01
     13  0.117944D+00  0.681567D-01  0.534645D+00
     14 -0.209851D+00 -0.818164D-01 -0.343420D-01  0.588584D+00
     15 -0.848244D-01 -0.852281D-01 -0.987151D-01  0.489817D-01  0.469923D+00
     16  0.947404D-03 -0.145279D-02  0.532622D-03  0.428146D-02  0.106928D-02
     17 -0.138809D-02  0.775335D-03 -0.608817D-03  0.591073D-03 -0.397951D-02
     18 -0.331417D-02 -0.100108D-02 -0.283740D-02 -0.882531D-02 -0.224257D-01
     19  0.365338D-02 -0.251242D-01 -0.203108D+00  0.232216D-01 -0.460719D-01
     20 -0.301655D-02  0.182796D-01  0.119558D-01 -0.410833D-01 -0.657070D-02
     21  0.802425D-02  0.188266D-02 -0.702934D-01  0.320004D-02 -0.383746D-01
               16            17            18            19            20 
     16  0.308573D-01
     17  0.126136D-01  0.812141D-02
     18 -0.545153D-01 -0.261267D-01  0.135896D+00
     19 -0.498625D-02  0.383643D-02  0.246017D-01  0.290335D+00
     20  0.120900D-01  0.136881D-01 -0.260469D-01 -0.251421D-01  0.513303D-01
     21  0.528261D-01  0.357394D-01 -0.942194D-01  0.723443D-01  0.121685D-01
               21 
     21  0.779747D-01
 FormGI is forming the generalized inverse of G from B-inverse, IUseBI=4.
 Force constants in internal coordinates: 
                1             2             3             4             5 
      1  0.162622D+00
      2  0.131738D+00  0.285125D-01
      3 -0.117804D-01 -0.638349D-02  0.351314D+00
      4 -0.688541D-02 -0.115699D-01  0.308546D-02  0.339209D+00
      5 -0.395732D-02 -0.629768D-03 -0.478828D-02 -0.426749D-02  0.365288D+00
      6  0.992197D-02  0.433014D-01  0.207792D-01  0.234331D-01  0.901886D-02
      7  0.439061D-01  0.669663D-02 -0.987898D-02 -0.737127D-02 -0.357852D-02
      8 -0.144567D-02 -0.277821D-02  0.710661D-02  0.690600D-02 -0.232924D-02
      9 -0.191467D-02 -0.105664D-01  0.621407D-02 -0.487579D-02  0.465588D-02
     10  0.255646D-02  0.753600D-02  0.484852D-02 -0.101393D-01 -0.773035D-02
     11 -0.249495D-02 -0.101376D-01 -0.491577D-02  0.534511D-02  0.560161D-02
     12  0.844395D-02  0.192581D-01 -0.100217D-01  0.549441D-02 -0.383678D-02
     13 -0.406825D-02 -0.689537D-03 -0.448068D-02 -0.102176D-02  0.269665D-02
     14  0.139574D-01  0.127394D-01 -0.113600D-02  0.744429D-02 -0.100759D-01
     15 -0.542484D-02 -0.105530D-01  0.859317D-03 -0.121384D-02  0.699087D-03
     16 -0.228256D-02 -0.692471D-02  0.895746D-03 -0.821972D-02  0.483783D-02
     17  0.142672D-02  0.282125D-02  0.586373D-02 -0.161366D-02 -0.293189D-02
     18  0.147002D-02  0.170555D-02 -0.779478D-02  0.736431D-02  0.269602D-02
                6             7             8             9            10 
      6  0.319597D+00
      7  0.339568D-01  0.618948D-01
      8 -0.372712D-01 -0.372927D-02  0.694198D-01
      9 -0.225178D-01 -0.108840D-01  0.538635D-02  0.782882D-01
     10  0.308901D-01  0.871843D-02 -0.378281D-01 -0.479881D-01  0.135023D+00
     11 -0.298399D-01 -0.500490D-02  0.269011D-02  0.319786D-02  0.450331D-02
     12  0.209165D-01  0.143528D-01 -0.391983D-01 -0.225291D-02 -0.166908D-01
     13  0.375660D-01 -0.117061D-02 -0.885715D-03 -0.427849D-01 -0.344269D-01
     14  0.275467D-01  0.218751D-01 -0.124561D-01  0.349740D-03  0.779945D-02
     15 -0.203247D-02 -0.164660D-01 -0.127007D-02 -0.106500D-02  0.129954D-02
     16  0.151351D-01 -0.458100D-02 -0.239826D-01  0.141609D-01  0.945909D-02
     17 -0.427731D-02  0.204259D-02  0.200488D-01 -0.303193D-03  0.124012D-01
     18 -0.971973D-02  0.390191D-02  0.159938D-03 -0.178343D-01 -0.802858D-02
               11            12            13            14            15 
     11  0.730988D-01
     12 -0.480311D-01  0.144926D+00
     13 -0.366345D-01 -0.262803D-01  0.135782D+00
     14 -0.466606D-02  0.525768D-02  0.320045D-02  0.147594D+00
     15  0.205243D-02  0.251723D-02 -0.304070D-02 -0.231681D-01  0.194003D-01
     16  0.117299D-02 -0.225491D-01  0.158871D-01  0.580904D-02  0.549057D-03
     17 -0.185310D-01  0.646965D-04 -0.125649D-01 -0.259076D-02  0.912380D-03
     18  0.225317D-01  0.150282D-01 -0.736395D-02 -0.354345D-02  0.335778D-02
               16            17            18 
     16  0.266532D-01
     17 -0.851634D-02  0.195009D-01
     18 -0.127374D-01 -0.811223D-02  0.236085D-01
 Leave Link  716 at Sat Mar 16 10:36:26 2024, MaxMem=   104857600 cpu:               0.0 elap:               0.0
 (Enter /opt/g16/l103.exe)

 GradGradGradGradGradGradGradGradGradGradGradGradGradGradGradGradGradGrad
 Berny optimization.
 Red2BG is reusing G-inverse.
 Internal  Forces:  Max     0.003935941 RMS     0.001389127
 Search for a saddle point.
 Step number   2 out of a maximum of   28
 All quantities printed in internal units (Hartrees-Bohrs-Radians)
 Swapping is turned off.
 Second derivative matrix not updated -- analytic derivatives used.
 The second derivative matrix:
                          R1        R2        R3        R4        R5
           R1           0.16262
           R2           0.13174   0.02851
           R3          -0.01178  -0.00638   0.35131
           R4          -0.00689  -0.01157   0.00309   0.33921
           R5          -0.00396  -0.00063  -0.00479  -0.00427   0.36529
           R6           0.00992   0.04330   0.02078   0.02343   0.00902
           A1           0.04391   0.00670  -0.00988  -0.00737  -0.00358
           A2          -0.00145  -0.00278   0.00711   0.00691  -0.00233
           A3          -0.00191  -0.01057   0.00621  -0.00488   0.00466
           A4           0.00256   0.00754   0.00485  -0.01014  -0.00773
           A5          -0.00249  -0.01014  -0.00492   0.00535   0.00560
           A6           0.00844   0.01926  -0.01002   0.00549  -0.00384
           A7          -0.00407  -0.00069  -0.00448  -0.00102   0.00270
           A8           0.01396   0.01274  -0.00114   0.00744  -0.01008
           D1          -0.00542  -0.01055   0.00086  -0.00121   0.00070
           D2          -0.00228  -0.00692   0.00090  -0.00822   0.00484
           D3           0.00143   0.00282   0.00586  -0.00161  -0.00293
           D4           0.00147   0.00171  -0.00779   0.00736   0.00270
                          R6        A1        A2        A3        A4
           R6           0.31960
           A1           0.03396   0.06189
           A2          -0.03727  -0.00373   0.06942
           A3          -0.02252  -0.01088   0.00539   0.07829
           A4           0.03089   0.00872  -0.03783  -0.04799   0.13502
           A5          -0.02984  -0.00500   0.00269   0.00320   0.00450
           A6           0.02092   0.01435  -0.03920  -0.00225  -0.01669
           A7           0.03757  -0.00117  -0.00089  -0.04278  -0.03443
           A8           0.02755   0.02188  -0.01246   0.00035   0.00780
           D1          -0.00203  -0.01647  -0.00127  -0.00107   0.00130
           D2           0.01514  -0.00458  -0.02398   0.01416   0.00946
           D3          -0.00428   0.00204   0.02005  -0.00030   0.01240
           D4          -0.00972   0.00390   0.00016  -0.01783  -0.00803
                          A5        A6        A7        A8        D1
           A5           0.07310
           A6          -0.04803   0.14493
           A7          -0.03663  -0.02628   0.13578
           A8          -0.00467   0.00526   0.00320   0.14759
           D1           0.00205   0.00252  -0.00304  -0.02317   0.01940
           D2           0.00117  -0.02255   0.01589   0.00581   0.00055
           D3          -0.01853   0.00006  -0.01256  -0.00259   0.00091
           D4           0.02253   0.01503  -0.00736  -0.00354   0.00336
                          D2        D3        D4
           D2           0.02665
           D3          -0.00852   0.01950
           D4          -0.01274  -0.00811   0.02361
 ITU=  0  0
     Eigenvalues ---   -0.06133   0.00227   0.01357   0.05044   0.07972
     Eigenvalues ---    0.08345   0.13715   0.14699   0.18027   0.18366
     Eigenvalues ---    0.23929   0.33935   0.35300   0.36845   0.38544
 Eigenvectors required to have negative eigenvalues:
                          R2        R1        A1        D1        R6
   1                    0.81970  -0.50822   0.19618   0.10953  -0.09518
                          A6        D2        A3        R4        A2
   1                   -0.05379   0.04851   0.04817   0.02696  -0.02382
 RFO step:  Lambda0=2.285493639D-06 Lambda=-2.99234555D-04.
 Linear search not attempted -- option 19 set.
 Iteration  1 RMS(Cart)=  0.04377564 RMS(Int)=  0.00134967
 Iteration  2 RMS(Cart)=  0.00130019 RMS(Int)=  0.00000305
 Iteration  3 RMS(Cart)=  0.00000061 RMS(Int)=  0.00000303
 ITry= 1 IFail=0 DXMaxC= 1.04D-01 DCOld= 1.00D+10 DXMaxT= 3.00D-01 DXLimC= 3.00D+00 Rises=F
 Variable       Old X    -DE/DX   Delta X   Delta X   Delta X     New X
                                 (Linear)    (Quad)   (Total)
    R1        2.72669   0.00356   0.00000   0.00763   0.00763   2.73432
    R2        2.30846   0.00121   0.00000  -0.00153  -0.00153   2.30693
    R3        2.06235  -0.00025   0.00000   0.00160   0.00160   2.06395
    R4        2.07469  -0.00017   0.00000   0.00128   0.00128   2.07597
    R5        2.04628   0.00047   0.00000   0.00132   0.00132   2.04760
    R6        2.65760   0.00080   0.00000  -0.00323  -0.00323   2.65436
    A1        2.41790   0.00394   0.00000   0.05872   0.05872   2.47663
    A2        1.86433   0.00024   0.00000   0.00412   0.00413   1.86846
    A3        1.98187  -0.00061   0.00000  -0.00025  -0.00025   1.98162
    A4        1.93551  -0.00011   0.00000  -0.00552  -0.00552   1.92999
    A5        1.92905  -0.00068   0.00000  -0.00496  -0.00496   1.92409
    A6        1.78630   0.00142   0.00000   0.00578   0.00578   1.79208
    A7        1.95468  -0.00007   0.00000   0.00147   0.00147   1.95615
    A8        1.95810   0.00005   0.00000  -0.00948  -0.00948   1.94862
    D1       -1.18960  -0.00076   0.00000  -0.01075  -0.01075  -1.20035
    D2        1.75293  -0.00050   0.00000   0.04320   0.04321   1.79614
    D3       -2.54728   0.00046   0.00000   0.04864   0.04864  -2.49864
    D4       -0.48091   0.00046   0.00000   0.04684   0.04684  -0.43407
         Item               Value     Threshold  Converged?
 Maximum Force            0.003936     0.000450     NO 
 RMS     Force            0.001389     0.000300     NO 
 Maximum Displacement     0.103538     0.001800     NO 
 RMS     Displacement     0.043920     0.001200     NO 
 Predicted change in Energy=-1.500046D-04
 GradGradGradGradGradGradGradGradGradGradGradGradGradGradGradGradGradGrad

 Leave Link  103 at Sat Mar 16 10:36:26 2024, MaxMem=   104857600 cpu:               0.0 elap:               0.0
 (Enter /opt/g16/l202.exe)
                          Input orientation:                          
 ---------------------------------------------------------------------
 Center     Atomic      Atomic             Coordinates (Angstroms)
 Number     Number       Type             X           Y           Z
 ---------------------------------------------------------------------
      1          1           0       -0.547070   -0.339161   -0.005920
      2          1           0        1.023216    0.997580    1.894447
      3          1           0        0.216631   -0.239687    2.854705
      4          1           0        1.198721   -0.758739    1.450902
      5          6           0        0.547893    0.015811    1.838922
      6         17           0        0.077520   -0.045585   -1.277667
      7          8           0       -0.662357    0.092557    1.130133
 ---------------------------------------------------------------------
                    Distance matrix (angstroms):
                    1          2          3          4          5
     1  H    0.000000
     2  H    2.804295   0.000000
     3  H    2.962483   1.761676   0.000000
     4  H    2.312177   1.819942   1.790133   0.000000
     5  C    2.174486   1.092194   1.098557   1.083542   0.000000
     6  Cl   1.446942   3.470568   4.139266   3.034925   3.152483
     7  O    1.220774   2.060195   1.963963   2.071524   1.404627
                    6          7
     6  Cl   0.000000
     7  O    2.522697   0.000000
 Stoichiometry    CH4ClO(2)
 Framework group  C1[X(CH4ClO)]
 Deg. of freedom    15
 Full point group                 C1      NOp   1
 RotChk:  IX=0 Diff= 6.67D-02
 Largest Abelian subgroup         C1      NOp   1
 Largest concise Abelian subgroup C1      NOp   1
                         Standard orientation:                         
 ---------------------------------------------------------------------
 Center     Atomic      Atomic             Coordinates (Angstroms)
 Number     Number       Type             X           Y           Z
 ---------------------------------------------------------------------
      1          1           0        0.168767    0.557802   -0.355547
      2          1           0       -1.832045   -0.868068    0.996383
      3          1           0       -2.721481   -0.090852   -0.310652
      4          1           0       -1.342355   -1.150955   -0.733463
      5          6           0       -1.727845   -0.446665   -0.005839
      6         17           0        1.405305   -0.098456    0.010432
      7          8           0       -0.974500    0.738226    0.032622
 ---------------------------------------------------------------------
 Rotational constants (GHZ):          32.5971075           3.7735803           3.4647604
 Leave Link  202 at Sat Mar 16 10:36:26 2024, MaxMem=   104857600 cpu:               0.0 elap:               0.0
 (Enter /opt/g16/l301.exe)
 Standard basis: STO-3G (5D, 7F)
 Ernie: Thresh=  0.10000D-02 Tol=  0.10000D-05 Strict=F.
 There are    23 symmetry adapted cartesian basis functions of A   symmetry.
 There are    23 symmetry adapted basis functions of A   symmetry.
    23 basis functions,    69 primitive gaussians,    23 cartesian basis functions
    18 alpha electrons       17 beta electrons
       nuclear repulsion energy        99.0727752275 Hartrees.
 IExCor=    0 DFT=F Ex=HF Corr=None ExCW=0 ScaHFX=  1.000000
 ScaDFX=  1.000000  1.000000  1.000000  1.000000 ScalE2=  1.000000  1.000000
 IRadAn=      5 IRanWt=     -1 IRanGd=            0 ICorTp=0 IEmpDi=  4
 NAtoms=    7 NActive=    7 NUniq=    7 SFac= 1.00D+00 NAtFMM=   60 NAOKFM=F Big=F
 Integral buffers will be    131072 words long.
 Raffenetti 2 integral format.
 Two-electron integral symmetry is turned on.
 Leave Link  301 at Sat Mar 16 10:36:26 2024, MaxMem=   104857600 cpu:               0.0 elap:               0.0
 (Enter /opt/g16/l402.exe)
 External calculation of energy, first and second derivatives.
 Running external command "python3 -u ../pes/h4cclo_pes.py R"
         input file       "/home/jh-li/scratch/g16/Gau-21127.EIn"
         output file      "/home/jh-li/scratch/g16/Gau-21127.EOu"
         message file     "/home/jh-li/scratch/g16/Gau-21127.EMs"
         fchk file        "/home/jh-li/scratch/g16/Gau-21127.EFC"
         mat. el file     "/home/jh-li/scratch/g16/Gau-21127.EUF"
 Recovered energy= -575.280072249     dipole=      0.000000000000      0.000000000000      0.000000000000
 Energy=    -575.280072     NIter=   0.
 Dipole moment=       0.000000       0.000000       0.000000
 Leave Link  402 at Sat Mar 16 10:36:27 2024, MaxMem=   104857600 cpu:               0.0 elap:               0.8
 (Enter /opt/g16/l716.exe)
 Dipole        = 0.00000000D+00 0.00000000D+00 0.00000000D+00
 ***** Axes restored to original set *****
 -------------------------------------------------------------------
 Center     Atomic                   Forces (Hartrees/Bohr)
 Number     Number              X              Y              Z
 -------------------------------------------------------------------
      1        1           0.000160688    0.000112614    0.000085207
      2        1           0.000008479   -0.000006025   -0.000037551
      3        1           0.000055867   -0.000004199    0.000008711
      4        1           0.000032524    0.000056325   -0.000029453
      5        6          -0.000118557   -0.000097242    0.000165304
      6       17          -0.000028810   -0.000083720   -0.000306879
      7        8          -0.000122375    0.000023021    0.000114556
 -------------------------------------------------------------------
 Cartesian Forces:  Max     0.000306879 RMS     0.000106251
 Force constants in Cartesian coordinates: 
                1             2             3             4             5 
      1  0.417950D-01
      2  0.201429D-01  0.374531D-01
      3  0.174469D-01 -0.145453D-01 -0.683375D-01
      4  0.215297D-02 -0.234228D-03 -0.762266D-02  0.113205D+00
      5 -0.141932D-03 -0.772593D-03 -0.154486D-02  0.113985D+00  0.295384D+00
      6 -0.604344D-02 -0.439428D-03  0.883159D-03  0.111569D-01  0.116985D-01
      7  0.288150D-03  0.240878D-02 -0.962097D-02 -0.331729D-02 -0.531374D-02
      8 -0.303789D-02  0.538933D-03  0.207026D-02 -0.579687D-02 -0.800524D-02
      9 -0.337218D-02  0.299822D-02  0.174079D-02 -0.392249D-03 -0.804502D-03
     10  0.423633D-02 -0.118778D-02 -0.511454D-02  0.134281D-01 -0.158696D-01
     11 -0.236087D-02  0.380406D-02  0.495802D-03  0.235254D-01 -0.144428D-01
     12  0.696974D-03  0.551028D-03 -0.384901D-02 -0.444012D-03  0.625951D-02
     13  0.241019D-02  0.156105D-02 -0.498326D-02 -0.999387D-01 -0.824916D-01
     14 -0.561582D-02 -0.302374D-02  0.329228D-03 -0.107497D+00 -0.280686D+00
     15  0.593790D-04  0.171845D-02 -0.200609D-01 -0.234774D-02 -0.148125D-01
     16 -0.236924D-01 -0.236340D-01  0.168583D-02 -0.165126D-02 -0.274835D-02
     17 -0.659169D-02 -0.169419D-01 -0.756048D-02 -0.208354D-02  0.144706D-02
     18  0.332185D-01  0.478616D-01 -0.205891D-01  0.249842D-02  0.116646D-01
     19 -0.271694D-01  0.939880D-03  0.818465D-02 -0.238561D-01 -0.743749D-02
     20 -0.240365D-02 -0.210516D-01  0.207560D-01 -0.218768D-01  0.711138D-02
     21 -0.420305D-01 -0.381352D-01  0.110248D+00 -0.285130D-02 -0.124512D-01
                6             7             8             9            10 
      6  0.500956D-01
      7  0.132758D-01  0.853909D-01
      8  0.286018D-01  0.179946D-01  0.606613D-01
      9  0.751682D-03 -0.784297D-01 -0.635933D-01  0.297515D+00
     10 -0.611764D-02 -0.420635D-02  0.473956D-02  0.311850D-03  0.168607D+00
     11 -0.824022D-02 -0.102712D-01  0.728657D-02  0.779439D-02 -0.132121D+00
     12 -0.695262D-03  0.186099D-01 -0.240070D-01 -0.418652D-02 -0.637621D-01
     13  0.802114D-02 -0.796096D-01 -0.159900D-01  0.955341D-01 -0.149766D+00
     14 -0.133945D-01 -0.706254D-02 -0.546455D-01  0.511673D-01  0.123442D+00
     15 -0.354429D-01  0.831735D-01  0.583930D-01 -0.263216D+00  0.633499D-01
     16  0.227679D-03  0.159527D-02  0.873040D-03 -0.187629D-02 -0.142238D-02
     17 -0.526426D-03 -0.205179D-02 -0.269188D-03  0.397507D-03 -0.128781D-02
     18  0.609094D-03 -0.653898D-02 -0.523538D-03  0.536945D-02  0.286838D-02
     19 -0.205375D-01 -0.106811D-03  0.121409D-02 -0.117965D-01 -0.308521D-01
     20 -0.176895D-01  0.428850D-02 -0.557658D-02  0.203752D-02  0.222731D-01
     21 -0.162043D-01 -0.204698D-01 -0.946851D-03 -0.379432D-01  0.846904D-02
               11            12            13            14            15 
     11  0.209576D+00
     12  0.838709D-01  0.960295D-01
     13  0.116134D+00  0.713033D-01  0.528311D+00
     14 -0.200359D+00 -0.857817D-01 -0.332610D-01  0.577804D+00
     15 -0.877772D-01 -0.889961D-01 -0.975256D-01  0.525625D-01  0.467278D+00
     16  0.934233D-03 -0.163868D-02  0.407533D-03  0.327851D-02  0.729844D-03
     17 -0.129507D-02  0.498489D-03 -0.150296D-02 -0.346119D-03 -0.427210D-02
     18 -0.307294D-02 -0.101042D-02 -0.320097D-02 -0.842464D-02 -0.208440D-01
     19  0.416973D-02 -0.247746D-01 -0.201948D+00  0.267299D-01 -0.474007D-01
     20 -0.455822D-02  0.186111D-01  0.155592D-01 -0.387527D-01 -0.581989D-02
     21  0.692291D-02  0.271273D-02 -0.691657D-01  0.354482D-02 -0.387399D-01
               16            17            18            19            20 
     16  0.285564D-01
     17  0.848309D-02  0.577906D-02
     18 -0.506508D-01 -0.187832D-01  0.131475D+00
     19 -0.379743D-02  0.503054D-02  0.217989D-01  0.287767D+00
     20  0.128147D-01  0.116259D-01 -0.287161D-01 -0.306506D-01  0.511674D-01
     21  0.515344D-01  0.302456D-01 -0.950160D-01  0.745531D-01  0.108117D-01
               21 
     21  0.749023D-01
 FormGI is forming the generalized inverse of G from B-inverse, IUseBI=4.
 Force constants in internal coordinates: 
                1             2             3             4             5 
      1  0.153752D+00
      2  0.129172D+00  0.247799D-01
      3 -0.114940D-01 -0.654876D-02  0.350974D+00
      4 -0.702826D-02 -0.118199D-01  0.280456D-02  0.339018D+00
      5 -0.417260D-02 -0.505639D-03 -0.490828D-02 -0.448087D-02  0.364055D+00
      6  0.771048D-02  0.442500D-01  0.208521D-01  0.229932D-01  0.791585D-02
      7  0.371397D-01  0.920355D-03 -0.967068D-02 -0.723747D-02 -0.346410D-02
      8 -0.112802D-02 -0.292299D-02  0.665407D-02  0.662060D-02 -0.279145D-02
      9 -0.112033D-02 -0.103538D-01  0.651933D-02 -0.467077D-02  0.512688D-02
     10  0.222945D-02  0.791111D-02  0.553248D-02 -0.102202D-01 -0.752291D-02
     11 -0.173688D-02 -0.107141D-01 -0.489955D-02  0.578245D-02  0.605930D-02
     12  0.700982D-02  0.178753D-01 -0.108887D-01  0.534842D-02 -0.445864D-02
     13 -0.438022D-02  0.526388D-03 -0.427536D-02 -0.123132D-02  0.255346D-02
     14  0.134699D-01  0.129029D-01 -0.148297D-02  0.629832D-02 -0.114907D-01
     15 -0.489210D-02 -0.882952D-02  0.792185D-03 -0.901063D-03  0.754399D-03
     16 -0.194551D-02 -0.634004D-02  0.159769D-02 -0.803405D-02  0.536223D-02
     17  0.126212D-02  0.270498D-02  0.594107D-02 -0.193978D-02 -0.321579D-02
     18  0.121759D-02  0.725819D-03 -0.819358D-02  0.740325D-02  0.254162D-02
                6             7             8             9            10 
      6  0.319250D+00
      7  0.329721D-01  0.465997D-01
      8 -0.376066D-01 -0.387115D-02  0.681893D-01
      9 -0.229473D-01 -0.981616D-02  0.518648D-02  0.778894D-01
     10  0.309834D-01  0.944303D-02 -0.376958D-01 -0.483372D-01  0.132498D+00
     11 -0.300665D-01 -0.516628D-02  0.268089D-02  0.304271D-02  0.546036D-02
     12  0.220051D-01  0.122816D-01 -0.387725D-01 -0.120123D-02 -0.157963D-01
     13  0.375513D-01 -0.998098D-03  0.385056D-04 -0.423749D-01 -0.337462D-01
     14  0.272127D-01  0.190800D-01 -0.132783D-01 -0.653734D-03  0.899394D-02
     15 -0.183148D-02 -0.129455D-01 -0.119898D-02 -0.711558D-03  0.104796D-02
     16  0.145732D-01 -0.374694D-02 -0.232716D-01  0.142886D-01  0.869605D-02
     17 -0.446798D-02  0.198844D-02  0.194589D-01 -0.335411D-03  0.121487D-01
     18 -0.930991D-02  0.257146D-02  0.810533D-04 -0.175261D-01 -0.659473D-02
               11            12            13            14            15 
     11  0.728841D-01
     12 -0.483027D-01  0.141895D+00
     13 -0.371401D-01 -0.259955D-01  0.134450D+00
     14 -0.573351D-02  0.694487D-02  0.340775D-02  0.143545D+00
     15  0.207714D-02  0.199488D-02 -0.283231D-02 -0.201314D-01  0.168730D-01
     16  0.115061D-02 -0.215813D-01  0.151812D-01  0.530776D-02  0.719853D-03
     17 -0.181892D-01 -0.484670D-04 -0.119758D-01 -0.263960D-02  0.797962D-03
     18  0.220127D-01  0.132530D-01 -0.716632D-02 -0.374219D-02  0.306454D-02
               16            17            18 
     16  0.259093D-01
     17 -0.817011D-02  0.191021D-01
     18 -0.121757D-01 -0.803769D-02  0.222203D-01
 Leave Link  716 at Sat Mar 16 10:36:27 2024, MaxMem=   104857600 cpu:               0.0 elap:               0.0
 (Enter /opt/g16/l103.exe)

 GradGradGradGradGradGradGradGradGradGradGradGradGradGradGradGradGradGrad
 Berny optimization.
 Red2BG is reusing G-inverse.
 Internal  Forces:  Max     0.000527379 RMS     0.000154152
 Search for a saddle point.
 Step number   3 out of a maximum of   28
 All quantities printed in internal units (Hartrees-Bohrs-Radians)
 Swapping is turned off.
 Second derivative matrix not updated -- analytic derivatives used.
 The second derivative matrix:
                          R1        R2        R3        R4        R5
           R1           0.15375
           R2           0.12917   0.02478
           R3          -0.01149  -0.00655   0.35097
           R4          -0.00703  -0.01182   0.00280   0.33902
           R5          -0.00417  -0.00051  -0.00491  -0.00448   0.36405
           R6           0.00771   0.04425   0.02085   0.02299   0.00792
           A1           0.03714   0.00092  -0.00967  -0.00724  -0.00346
           A2          -0.00113  -0.00292   0.00665   0.00662  -0.00279
           A3          -0.00112  -0.01035   0.00652  -0.00467   0.00513
           A4           0.00223   0.00791   0.00553  -0.01022  -0.00752
           A5          -0.00174  -0.01071  -0.00490   0.00578   0.00606
           A6           0.00701   0.01788  -0.01089   0.00535  -0.00446
           A7          -0.00438   0.00053  -0.00428  -0.00123   0.00255
           A8           0.01347   0.01290  -0.00148   0.00630  -0.01149
           D1          -0.00489  -0.00883   0.00079  -0.00090   0.00075
           D2          -0.00195  -0.00634   0.00160  -0.00803   0.00536
           D3           0.00126   0.00270   0.00594  -0.00194  -0.00322
           D4           0.00122   0.00073  -0.00819   0.00740   0.00254
                          R6        A1        A2        A3        A4
           R6           0.31925
           A1           0.03297   0.04660
           A2          -0.03761  -0.00387   0.06819
           A3          -0.02295  -0.00982   0.00519   0.07789
           A4           0.03098   0.00944  -0.03770  -0.04834   0.13250
           A5          -0.03007  -0.00517   0.00268   0.00304   0.00546
           A6           0.02201   0.01228  -0.03877  -0.00120  -0.01580
           A7           0.03755  -0.00100   0.00004  -0.04237  -0.03375
           A8           0.02721   0.01908  -0.01328  -0.00065   0.00899
           D1          -0.00183  -0.01295  -0.00120  -0.00071   0.00105
           D2           0.01457  -0.00375  -0.02327   0.01429   0.00870
           D3          -0.00447   0.00199   0.01946  -0.00034   0.01215
           D4          -0.00931   0.00257   0.00008  -0.01753  -0.00659
                          A5        A6        A7        A8        D1
           A5           0.07288
           A6          -0.04830   0.14190
           A7          -0.03714  -0.02600   0.13445
           A8          -0.00573   0.00694   0.00341   0.14354
           D1           0.00208   0.00199  -0.00283  -0.02013   0.01687
           D2           0.00115  -0.02158   0.01518   0.00531   0.00072
           D3          -0.01819  -0.00005  -0.01198  -0.00264   0.00080
           D4           0.02201   0.01325  -0.00717  -0.00374   0.00306
                          D2        D3        D4
           D2           0.02591
           D3          -0.00817   0.01910
           D4          -0.01218  -0.00804   0.02222
 ITU=  0  0  0
     Eigenvalues ---   -0.06504   0.00206   0.01227   0.04127   0.07649
     Eigenvalues ---    0.08041   0.13522   0.14150   0.17775   0.18208
     Eigenvalues ---    0.22925   0.33867   0.35113   0.36707   0.38375
 Eigenvectors required to have negative eigenvalues:
                          R2        R1        A1        R6        D1
   1                    0.81585  -0.50864   0.22052  -0.09907   0.08738
                          A6        D2        A3        R4        A5
   1                   -0.04951   0.04691   0.04607   0.02674   0.02518
 RFO step:  Lambda0=2.964299199D-07 Lambda=-5.99606874D-06.
 Linear search not attempted -- option 19 set.
 Iteration  1 RMS(Cart)=  0.00751551 RMS(Int)=  0.00003875
 Iteration  2 RMS(Cart)=  0.00003855 RMS(Int)=  0.00000018
 Iteration  3 RMS(Cart)=  0.00000000 RMS(Int)=  0.00000018
 ITry= 1 IFail=0 DXMaxC= 1.74D-02 DCOld= 1.00D+10 DXMaxT= 3.00D-01 DXLimC= 3.00D+00 Rises=F
 Variable       Old X    -DE/DX   Delta X   Delta X   Delta X     New X
                                 (Linear)    (Quad)   (Total)
    R1        2.73432   0.00025   0.00000   0.00231   0.00231   2.73663
    R2        2.30693   0.00021   0.00000  -0.00347  -0.00347   2.30346
    R3        2.06395  -0.00001   0.00000   0.00035   0.00035   2.06430
    R4        2.07597  -0.00001   0.00000   0.00010   0.00010   2.07607
    R5        2.04760  -0.00001   0.00000  -0.00006  -0.00006   2.04754
    R6        2.65436   0.00004   0.00000  -0.00028  -0.00028   2.65408
    A1        2.47663   0.00053   0.00000   0.00886   0.00886   2.48548
    A2        1.86846   0.00000   0.00000   0.00024   0.00024   1.86870
    A3        1.98162  -0.00005   0.00000  -0.00017  -0.00017   1.98144
    A4        1.92999  -0.00004   0.00000  -0.00137  -0.00137   1.92862
    A5        1.92409   0.00000   0.00000   0.00016   0.00016   1.92425
    A6        1.79208   0.00011   0.00000   0.00094   0.00094   1.79302
    A7        1.95615  -0.00000   0.00000   0.00033   0.00033   1.95647
    A8        1.94862   0.00010   0.00000  -0.00076  -0.00076   1.94786
    D1       -1.20035  -0.00010   0.00000  -0.00395  -0.00395  -1.20430
    D2        1.79614  -0.00003   0.00000   0.00896   0.00896   1.80509
    D3       -2.49864   0.00002   0.00000   0.00914   0.00914  -2.48950
    D4       -0.43407   0.00008   0.00000   0.01003   0.01003  -0.42404
         Item               Value     Threshold  Converged?
 Maximum Force            0.000527     0.000450     NO 
 RMS     Force            0.000154     0.000300     YES
 Maximum Displacement     0.017362     0.001800     NO 
 RMS     Displacement     0.007524     0.001200     NO 
 Predicted change in Energy=-2.849816D-06
 GradGradGradGradGradGradGradGradGradGradGradGradGradGradGradGradGradGrad

 Leave Link  103 at Sat Mar 16 10:36:27 2024, MaxMem=   104857600 cpu:               0.0 elap:               0.0
 (Enter /opt/g16/l202.exe)
                          Input orientation:                          
 ---------------------------------------------------------------------
 Center     Atomic      Atomic             Coordinates (Angstroms)
 Number     Number       Type             X           Y           Z
 ---------------------------------------------------------------------
      1          1           0       -0.545661   -0.335097   -0.004082
      2          1           0        1.022315    0.998556    1.901612
      3          1           0        0.215852   -0.245694    2.853549
      4          1           0        1.199909   -0.754838    1.447354
      5          6           0        0.547922    0.016512    1.839686
      6         17           0        0.075193   -0.054772   -1.282022
      7          8           0       -0.660975    0.098110    1.129426
 ---------------------------------------------------------------------
                    Distance matrix (angstroms):
                    1          2          3          4          5
     1  H    0.000000
     2  H    2.805147   0.000000
     3  H    2.958707   1.762023   0.000000
     4  H    2.308650   1.819968   1.790246   0.000000
     5  C    2.172333   1.092381   1.098608   1.083510   0.000000
     6  Cl   1.448162   3.484547   4.142365   3.033904   3.158103
     7  O    1.218937   2.059256   1.964593   2.071591   1.404477
                    6          7
     6  Cl   0.000000
     7  O    2.525945   0.000000
 Stoichiometry    CH4ClO(2)
 Framework group  C1[X(CH4ClO)]
 Deg. of freedom    15
 Full point group                 C1      NOp   1
 RotChk:  IX=0 Diff= 1.17D-02
 Largest Abelian subgroup         C1      NOp   1
 Largest concise Abelian subgroup C1      NOp   1
                         Standard orientation:                         
 ---------------------------------------------------------------------
 Center     Atomic      Atomic             Coordinates (Angstroms)
 Number     Number       Type             X           Y           Z
 ---------------------------------------------------------------------
      1          1           0        0.166326    0.553442   -0.351961
      2          1           0       -1.845748   -0.858800    0.999326
      3          1           0       -2.721101   -0.091461   -0.323426
      4          1           0       -1.339138   -1.157029   -0.723082
      5          6           0       -1.731064   -0.446026   -0.005542
      6         17           0        1.407790   -0.098232    0.010341
      7          8           0       -0.975798    0.737492    0.032075
 ---------------------------------------------------------------------
 Rotational constants (GHZ):          32.6737695           3.7609485           3.4547680
 Leave Link  202 at Sat Mar 16 10:36:27 2024, MaxMem=   104857600 cpu:               0.0 elap:               0.0
 (Enter /opt/g16/l301.exe)
 Standard basis: STO-3G (5D, 7F)
 Ernie: Thresh=  0.10000D-02 Tol=  0.10000D-05 Strict=F.
 There are    23 symmetry adapted cartesian basis functions of A   symmetry.
 There are    23 symmetry adapted basis functions of A   symmetry.
    23 basis functions,    69 primitive gaussians,    23 cartesian basis functions
    18 alpha electrons       17 beta electrons
       nuclear repulsion energy        98.9980239099 Hartrees.
 IExCor=    0 DFT=F Ex=HF Corr=None ExCW=0 ScaHFX=  1.000000
 ScaDFX=  1.000000  1.000000  1.000000  1.000000 ScalE2=  1.000000  1.000000
 IRadAn=      5 IRanWt=     -1 IRanGd=            0 ICorTp=0 IEmpDi=  4
 NAtoms=    7 NActive=    7 NUniq=    7 SFac= 1.00D+00 NAtFMM=   60 NAOKFM=F Big=F
 Integral buffers will be    131072 words long.
 Raffenetti 2 integral format.
 Two-electron integral symmetry is turned on.
 Leave Link  301 at Sat Mar 16 10:36:27 2024, MaxMem=   104857600 cpu:               0.1 elap:               0.1
 (Enter /opt/g16/l402.exe)
 External calculation of energy, first and second derivatives.
 Running external command "python3 -u ../pes/h4cclo_pes.py R"
         input file       "/home/jh-li/scratch/g16/Gau-21127.EIn"
         output file      "/home/jh-li/scratch/g16/Gau-21127.EOu"
         message file     "/home/jh-li/scratch/g16/Gau-21127.EMs"
         fchk file        "/home/jh-li/scratch/g16/Gau-21127.EFC"
         mat. el file     "/home/jh-li/scratch/g16/Gau-21127.EUF"
 Recovered energy= -575.280075204     dipole=      0.000000000000      0.000000000000      0.000000000000
 Energy=    -575.280075     NIter=   0.
 Dipole moment=       0.000000       0.000000       0.000000
 Leave Link  402 at Sat Mar 16 10:36:28 2024, MaxMem=   104857600 cpu:               0.0 elap:               0.8
 (Enter /opt/g16/l716.exe)
 Dipole        = 0.00000000D+00 0.00000000D+00 0.00000000D+00
 ***** Axes restored to original set *****
 -------------------------------------------------------------------
 Center     Atomic                   Forces (Hartrees/Bohr)
 Number     Number              X              Y              Z
 -------------------------------------------------------------------
      1        1          -0.000002398   -0.000002580    0.000006478
      2        1          -0.000003221    0.000004049   -0.000005108
      3        1           0.000006094    0.000002916    0.000000001
      4        1           0.000003425    0.000005790   -0.000002152
      5        6          -0.000002939   -0.000001466    0.000004240
      6       17          -0.000008661   -0.000005435   -0.000007567
      7        8          -0.000004789   -0.000002760    0.000004087
 -------------------------------------------------------------------
 Cartesian Forces:  Max     0.000008661 RMS     0.000004580
 Force constants in Cartesian coordinates: 
                1             2             3             4             5 
      1  0.412874D-01
      2  0.195788D-01  0.365034D-01
      3  0.181012D-01 -0.146182D-01 -0.697344D-01
      4  0.212424D-02 -0.318280D-03 -0.769163D-02  0.112852D+00
      5 -0.173144D-03 -0.847627D-03 -0.137675D-02  0.113631D+00  0.295296D+00
      6 -0.605813D-02 -0.380410D-03  0.859020D-03  0.119340D-01  0.134141D-01
      7  0.310240D-03  0.239171D-02 -0.983347D-02 -0.335357D-02 -0.542192D-02
      8 -0.306103D-02  0.533081D-03  0.213539D-02 -0.578056D-02 -0.817101D-02
      9 -0.337924D-02  0.301172D-02  0.173707D-02 -0.466577D-03 -0.861253D-03
     10  0.429441D-02 -0.130170D-02 -0.524214D-02  0.134233D-01 -0.158053D-01
     11 -0.241912D-02  0.378010D-02  0.535955D-03  0.235822D-01 -0.144688D-01
     12  0.724151D-03  0.577254D-03 -0.401286D-02 -0.268584D-03  0.619710D-02
     13  0.251465D-02  0.170586D-02 -0.505044D-02 -0.995430D-01 -0.821525D-01
     14 -0.558072D-02 -0.284350D-02  0.210411D-03 -0.107294D+00 -0.280518D+00
     15  0.958747D-04  0.161941D-02 -0.202503D-01 -0.299485D-02 -0.166059D-01
     16 -0.231735D-01 -0.230733D-01  0.109118D-02 -0.167349D-02 -0.266225D-02
     17 -0.603849D-02 -0.161998D-01 -0.787062D-02 -0.204290D-02  0.155340D-02
     18  0.326134D-01  0.472550D-01 -0.193633D-01  0.252343D-02  0.115797D-01
     19 -0.273366D-01  0.101323D-02  0.860106D-02 -0.238071D-01 -0.743313D-02
     20 -0.231549D-02 -0.209192D-01  0.209846D-01 -0.217550D-01  0.719248D-02
     21 -0.421220D-01 -0.374551D-01  0.110802D+00 -0.303856D-02 -0.123379D-01
                6             7             8             9            10 
      6  0.501714D-01
      7  0.132081D-01  0.854943D-01
      8  0.284948D-01  0.185318D-01  0.614142D-01
      9  0.979691D-03 -0.785567D-01 -0.651055D-01  0.296541D+00
     10 -0.612576D-02 -0.428650D-02  0.476789D-02  0.306084D-03  0.168884D+00
     11 -0.831356D-02 -0.104375D-01  0.733025D-02  0.783859D-02 -0.131948D+00
     12 -0.797280D-03  0.186021D-01 -0.239538D-01 -0.426160D-02 -0.646079D-01
     13  0.731979D-02 -0.796001D-01 -0.166390D-01  0.957718D-01 -0.150005D+00
     14 -0.150579D-01 -0.750722D-02 -0.551872D-01  0.525527D-01  0.123307D+00
     15 -0.354058D-01  0.834089D-01  0.598676D-01 -0.262453D+00  0.640084D-01
     16  0.206788D-03  0.149183D-02  0.899478D-03 -0.184715D-02 -0.144423D-02
     17 -0.548983D-03 -0.208719D-02 -0.263809D-03  0.443559D-03 -0.123340D-02
     18  0.664624D-03 -0.639057D-02 -0.570341D-03  0.539759D-02  0.298180D-02
     19 -0.205019D-01 -0.219833D-04  0.127765D-02 -0.118495D-01 -0.308414D-01
     20 -0.175977D-01  0.452263D-02 -0.566512D-02  0.211742D-02  0.222017D-01
     21 -0.164747D-01 -0.204385D-01 -0.873872D-03 -0.379096D-01  0.868453D-02
               11            12            13            14            15 
     11  0.208271D+00
     12  0.844449D-01  0.969823D-01
     13  0.116068D+00  0.719424D-01  0.527719D+00
     14 -0.198843D+00 -0.863802D-01 -0.335764D-01  0.576440D+00
     15 -0.882357D-01 -0.898120D-01 -0.975080D-01  0.533270D-01  0.467573D+00
     16  0.922547D-03 -0.168143D-02  0.359102D-03  0.316621D-02  0.651921D-03
     17 -0.127641D-02  0.455285D-03 -0.162911D-02 -0.497752D-03 -0.431006D-02
     18 -0.302367D-02 -0.970443D-03 -0.311814D-02 -0.845747D-02 -0.206102D-01
     19  0.424137D-02 -0.247198D-01 -0.201579D+00  0.275006D-01 -0.476237D-01
     20 -0.478234D-02  0.186620D-01  0.162324D-01 -0.385605D-01 -0.567091D-02
     21  0.674716D-02  0.287698D-02 -0.693738D-01  0.380877D-02 -0.390635D-01
               16            17            18            19            20 
     16  0.279872D-01
     17  0.780720D-02  0.536662D-02
     18 -0.498440D-01 -0.175285D-01  0.130436D+00
     19 -0.355130D-02  0.521971D-02  0.212278D-01  0.287174D+00
     20  0.129413D-01  0.113175D-01 -0.292488D-01 -0.318234D-01  0.513823D-01
     21  0.514349D-01  0.293588D-01 -0.955610D-01  0.748929D-01  0.107437D-01
               21 
     21  0.752877D-01
 FormGI is forming the generalized inverse of G from B-inverse, IUseBI=4.
 Force constants in internal coordinates: 
                1             2             3             4             5 
      1  0.151928D+00
      2  0.129215D+00  0.249496D-01
      3 -0.114251D-01 -0.661429D-02  0.350764D+00
      4 -0.701634D-02 -0.118597D-01  0.280531D-02  0.339037D+00
      5 -0.418635D-02 -0.464016D-03 -0.489650D-02 -0.449123D-02  0.364150D+00
      6  0.728095D-02  0.443861D-01  0.209067D-01  0.229704D-01  0.774928D-02
      7  0.361902D-01  0.134340D-03 -0.962205D-02 -0.721323D-02 -0.345017D-02
      8 -0.105738D-02 -0.291317D-02  0.658511D-02  0.657121D-02 -0.285443D-02
      9 -0.100477D-02 -0.104134D-01  0.656254D-02 -0.464202D-02  0.518948D-02
     10  0.223404D-02  0.803235D-02  0.559287D-02 -0.102258D-01 -0.747618D-02
     11 -0.161062D-02 -0.108684D-01 -0.490422D-02  0.582337D-02  0.609959D-02
     12  0.678975D-02  0.178741D-01 -0.110120D-01  0.528057D-02 -0.454121D-02
     13 -0.450097D-02  0.608221D-03 -0.418750D-02 -0.121151D-02  0.252914D-02
     14  0.134533D-01  0.127642D-01 -0.149077D-02  0.612660D-02 -0.117086D-01
     15 -0.477579D-02 -0.857729D-02  0.782086D-03 -0.859438D-03  0.765608D-03
     16 -0.190689D-02 -0.634828D-02  0.171782D-02 -0.798065D-02  0.541471D-02
     17  0.126458D-02  0.274119D-02  0.595776D-02 -0.199334D-02 -0.325565D-02
     18  0.118336D-02  0.635409D-03 -0.824079D-02  0.737838D-02  0.249346D-02
                6             7             8             9            10 
      6  0.319317D+00
      7  0.327149D-01  0.444507D-01
      8 -0.376633D-01 -0.385234D-02  0.680716D-01
      9 -0.229980D-01 -0.965771D-02  0.515535D-02  0.777945D-01
     10  0.310030D-01  0.960238D-02 -0.376816D-01 -0.484206D-01  0.132303D+00
     11 -0.300636D-01 -0.520895D-02  0.266805D-02  0.303948D-02  0.555038D-02
     12  0.222202D-01  0.120079D-01 -0.387105D-01 -0.106566D-02 -0.156719D-01
     13  0.374853D-01 -0.106200D-02  0.114179D-03 -0.422660D-01 -0.336293D-01
     14  0.273438D-01  0.185214D-01 -0.133738D-01 -0.797822D-03  0.921956D-02
     15 -0.184998D-02 -0.124177D-01 -0.117868D-02 -0.640878D-03  0.100972D-02
     16  0.144646D-01 -0.365366D-02 -0.232164D-01  0.143165D-01  0.861806D-02
     17 -0.452201D-02  0.202104D-02  0.194215D-01 -0.332528D-03  0.121658D-01
     18 -0.919009D-02  0.237482D-02  0.473564D-04 -0.174760D-01 -0.642555D-02
               11            12            13            14            15 
     11  0.728933D-01
     12 -0.483647D-01  0.141649D+00
     13 -0.372238D-01 -0.260843D-01  0.134346D+00
     14 -0.591232D-02  0.724835D-02  0.334388D-02  0.143172D+00
     15  0.208264D-02  0.189615D-02 -0.281225D-02 -0.197281D-01  0.165598D-01
     16  0.115769D-02 -0.214810D-01  0.151172D-01  0.519333D-02  0.745253D-03
     17 -0.181323D-01 -0.113703D-03 -0.119360D-01 -0.261491D-02  0.779057D-03
     18  0.219295D-01  0.130403D-01 -0.714082D-02 -0.377044D-02  0.300342D-02
               16            17            18 
     16  0.258333D-01
     17 -0.812651D-02  0.190764D-01
     18 -0.120969D-01 -0.805480D-02  0.220183D-01
 Leave Link  716 at Sat Mar 16 10:36:28 2024, MaxMem=   104857600 cpu:               0.0 elap:               0.0
 (Enter /opt/g16/l103.exe)

 GradGradGradGradGradGradGradGradGradGradGradGradGradGradGradGradGradGrad
 Berny optimization.
 Red2BG is reusing G-inverse.
 Internal  Forces:  Max     0.000010398 RMS     0.000003494
 Search for a saddle point.
 Step number   4 out of a maximum of   28
 All quantities printed in internal units (Hartrees-Bohrs-Radians)
 Swapping is turned off.
[...]
  Atom  AN      X      Y      Z        X      Y      Z        X      Y      Z
     1   1     0.29  -0.22  -0.80     0.26   0.67   0.59    -0.30  -0.46   0.13
     2   1    -0.03  -0.00  -0.04    -0.05   0.07   0.04    -0.38   0.03  -0.06
     3   1     0.06   0.22   0.05     0.12   0.23  -0.04     0.31   0.45  -0.02
     4   1    -0.17  -0.04  -0.02    -0.17  -0.11   0.00    -0.19   0.18  -0.20
     5   6    -0.01   0.02  -0.01     0.01  -0.01   0.02     0.24   0.17   0.05
     6  17    -0.14   0.06   0.01    -0.03   0.01  -0.01    -0.01   0.01  -0.00
     7   8     0.31  -0.15   0.03     0.04  -0.06  -0.04    -0.11  -0.16  -0.02
                      7                      8                      9
                      A                      A                      A
 Frequencies --   1044.7035              1178.1441              1317.2623
 Red. masses --      1.4627                 1.4621                 1.1975
 Frc consts  --      0.9406                 1.1957                 1.2242
 IR Inten    --      0.0000                 0.0000                 0.0000
  Atom  AN      X      Y      Z        X      Y      Z        X      Y      Z
     1   1    -0.05  -0.00   0.08     0.05   0.08   0.16    -0.01  -0.68   0.72
     2   1     0.42   0.59   0.15     0.24  -0.24  -0.04     0.01   0.04   0.01
     3   1    -0.24  -0.24   0.34    -0.17  -0.38  -0.20    -0.03   0.00   0.08
     4   1     0.01  -0.31   0.27     0.56   0.53   0.00     0.10   0.01   0.00
     5   6     0.03   0.10  -0.13    -0.06   0.13   0.06    -0.03  -0.05  -0.02
     6  17    -0.00   0.00   0.00    -0.00   0.00  -0.00    -0.03   0.02  -0.01
     7   8    -0.03  -0.08   0.05     0.01  -0.10  -0.04     0.08   0.04  -0.02
                     10                     11                     12
                      A                      A                      A
 Frequencies --   1457.3153              1541.4531              1596.7098
 Red. masses --      1.0675                 1.0610                 1.0619
 Frc consts  --      1.3357                 1.4854                 1.5951
 IR Inten    --      0.0000                 0.0000                 0.0000
  Atom  AN      X      Y      Z        X      Y      Z        X      Y      Z
     1   1    -0.07  -0.08  -0.06    -0.04   0.13  -0.07    -0.01   0.02  -0.02
     2   1     0.62   0.11   0.12    -0.34   0.19   0.04    -0.02   0.61   0.27
     3   1     0.30   0.59  -0.30    -0.05   0.36   0.54     0.00  -0.21  -0.18
     4   1     0.19   0.04   0.06     0.58   0.24   0.03    -0.15   0.42  -0.53
     5   6    -0.05  -0.04   0.00    -0.01  -0.06  -0.03     0.00  -0.06   0.02
     6  17     0.00  -0.00   0.00     0.00  -0.00   0.00     0.00  -0.00   0.00
     7   8    -0.03  -0.01   0.01    -0.00  -0.01  -0.01     0.01  -0.00   0.01
                     13                     14                     15
                      A                      A                      A
 Frequencies --   3036.8743              3137.4365              3264.9138
 Red. masses --      1.0294                 1.0923                 1.1116
 Frc consts  --      5.5936                 6.3350                 6.9816
 IR Inten    --      0.0000                 0.0000                 0.0000
  Atom  AN      X      Y      Z        X      Y      Z        X      Y      Z
     1   1     0.00   0.00   0.00     0.01  -0.01  -0.01    -0.00   0.01   0.01
     2   1     0.03   0.17  -0.43    -0.09  -0.28   0.70    -0.04  -0.17   0.41
     3   1     0.66  -0.25   0.22     0.55  -0.19   0.16    -0.23   0.09  -0.09
     4   1    -0.18   0.32   0.31     0.07  -0.13  -0.16    -0.32   0.56   0.56
     5   6    -0.04  -0.01  -0.01    -0.04   0.05  -0.06     0.05  -0.04  -0.07
     6  17     0.00  -0.00  -0.00    -0.00   0.00  -0.00    -0.00   0.00   0.00
     7   8    -0.00  -0.00  -0.00    -0.00   0.00  -0.00     0.00   0.00  -0.00

 -------------------
 - Thermochemistry -
 -------------------
 Temperature   298.150 Kelvin.  Pressure   1.00000 Atm.
 Atom     1 has atomic number  1 and mass   1.00783
 Atom     2 has atomic number  1 and mass   1.00783
 Atom     3 has atomic number  1 and mass   1.00783
 Atom     4 has atomic number  1 and mass   1.00783
 Atom     5 has atomic number  6 and mass  12.00000
 Atom     6 has atomic number 17 and mass  34.96885
 Atom     7 has atomic number  8 and mass  15.99491
 Molecular mass:    66.99507 amu.
 Principal axes and moments of inertia in atomic units:
                           1         2         3
     Eigenvalues --    55.23517 479.86331 522.39143
           X            0.99951   0.03138  -0.00062
           Y           -0.03139   0.99940  -0.01479
           Z            0.00015   0.01480   0.99989
 This molecule is an asymmetric top.
 Rotational symmetry number  1.
 Rotational temperatures (Kelvin)      1.56809     0.18050     0.16580
 Rotational constants (GHZ):          32.67377     3.76095     3.45477
    1 imaginary frequencies ignored.
 Zero-point vibrational energy     120071.0 (Joules/Mol)
                                   28.69767 (Kcal/Mol)
 Warning -- explicit consideration of   3 degrees of freedom as
           vibrations may cause significant error
 Vibrational temperatures:    194.54   289.64   532.46  1206.95  1372.62
          (Kelvin)           1503.10  1695.09  1895.25  2096.75  2217.81
                             2297.31  4369.38  4514.07  4697.48
 
 Zero-point correction=                           0.045733 (Hartree/Particle)
 Thermal correction to Energy=                    0.050318
 Thermal correction to Enthalpy=                  0.051262
 Thermal correction to Gibbs Free Energy=         0.017725
 Sum of electronic and zero-point Energies=           -575.234343
 Sum of electronic and thermal Energies=              -575.229757
 Sum of electronic and thermal Enthalpies=            -575.228813
 Sum of electronic and thermal Free Energies=         -575.262350
 
                     E (Thermal)             CV                S
                      KCal/Mol        Cal/Mol-Kelvin    Cal/Mol-Kelvin
 Total                   31.575             13.166             70.585
 Electronic               0.000              0.000              1.377
 Translational            0.889              2.981             38.524
 Rotational               0.889              2.981             24.141
 Vibrational             29.797              7.204              6.542
 Vibration     1          0.613              1.918              2.871
 Vibration     2          0.638              1.838              2.121
 Vibration     3          0.742              1.534              1.079
                       Q            Log10(Q)             Ln(Q)
 Total Bot       0.703284D-08         -8.152869        -18.772675
 Total V=0       0.763252D+13         12.882668         29.663440
 Vib (Bot)       0.387322D-20        -20.411927        -47.000200
 Vib (Bot)    1  0.150572D+01          0.177744          0.409272
 Vib (Bot)    2  0.990003D+00         -0.004363         -0.010047
 Vib (Bot)    3  0.491917D+00         -0.308109         -0.709446
 Vib (V=0)       0.420349D+01          0.623610          1.435915
 Vib (V=0)    1  0.208657D+01          0.319432          0.735520
 Vib (V=0)    2  0.160910D+01          0.206583          0.475676
 Vib (V=0)    3  0.120141D+01          0.079693          0.183499
 Electronic      0.200000D+01          0.301030          0.693147
 Translational   0.215535D+08          7.333518         16.886050
 Rotational      0.421221D+05          4.624510         10.648328
 ***** Axes restored to original set *****
 -------------------------------------------------------------------
 Center     Atomic                   Forces (Hartrees/Bohr)
 Number     Number              X              Y              Z
 -------------------------------------------------------------------
      1        1          -0.000002398   -0.000002580    0.000006478
      2        1          -0.000003221    0.000004049   -0.000005108
      3        1           0.000006094    0.000002916    0.000000001
      4        1           0.000003425    0.000005790   -0.000002152
      5        6          -0.000002939   -0.000001466    0.000004240
      6       17          -0.000008661   -0.000005435   -0.000007567
      7        8          -0.000004789   -0.000002760    0.000004087
 -------------------------------------------------------------------
 Cartesian Forces:  Max     0.000008661 RMS     0.000004580
 Force constants in Cartesian coordinates: 
                1             2             3             4             5 
      1  0.412874D-01
      2  0.195788D-01  0.365034D-01
      3  0.181012D-01 -0.146182D-01 -0.697344D-01
      4  0.212424D-02 -0.318280D-03 -0.769163D-02  0.112852D+00
      5 -0.173144D-03 -0.847627D-03 -0.137675D-02  0.113631D+00  0.295296D+00
      6 -0.605813D-02 -0.380410D-03  0.859020D-03  0.119340D-01  0.134141D-01
      7  0.310240D-03  0.239171D-02 -0.983347D-02 -0.335357D-02 -0.542192D-02
      8 -0.306103D-02  0.533081D-03  0.213539D-02 -0.578056D-02 -0.817101D-02
      9 -0.337924D-02  0.301172D-02  0.173707D-02 -0.466577D-03 -0.861253D-03
     10  0.429441D-02 -0.130170D-02 -0.524214D-02  0.134233D-01 -0.158053D-01
     11 -0.241912D-02  0.378010D-02  0.535955D-03  0.235822D-01 -0.144688D-01
     12  0.724151D-03  0.577254D-03 -0.401286D-02 -0.268584D-03  0.619710D-02
     13  0.251465D-02  0.170586D-02 -0.505044D-02 -0.995430D-01 -0.821525D-01
     14 -0.558072D-02 -0.284350D-02  0.210411D-03 -0.107294D+00 -0.280518D+00
     15  0.958747D-04  0.161941D-02 -0.202503D-01 -0.299485D-02 -0.166059D-01
     16 -0.231735D-01 -0.230733D-01  0.109118D-02 -0.167349D-02 -0.266225D-02
     17 -0.603849D-02 -0.161998D-01 -0.787062D-02 -0.204290D-02  0.155340D-02
     18  0.326134D-01  0.472550D-01 -0.193633D-01  0.252343D-02  0.115797D-01
     19 -0.273366D-01  0.101323D-02  0.860106D-02 -0.238071D-01 -0.743313D-02
     20 -0.231549D-02 -0.209192D-01  0.209846D-01 -0.217550D-01  0.719248D-02
     21 -0.421220D-01 -0.374551D-01  0.110802D+00 -0.303856D-02 -0.123379D-01
                6             7             8             9            10 
      6  0.501714D-01
      7  0.132081D-01  0.854943D-01
      8  0.284948D-01  0.185318D-01  0.614142D-01
      9  0.979691D-03 -0.785567D-01 -0.651055D-01  0.296541D+00
     10 -0.612576D-02 -0.428650D-02  0.476789D-02  0.306084D-03  0.168884D+00
     11 -0.831356D-02 -0.104375D-01  0.733025D-02  0.783859D-02 -0.131948D+00
     12 -0.797280D-03  0.186021D-01 -0.239538D-01 -0.426160D-02 -0.646079D-01
     13  0.731979D-02 -0.796001D-01 -0.166390D-01  0.957718D-01 -0.150005D+00
     14 -0.150579D-01 -0.750722D-02 -0.551872D-01  0.525527D-01  0.123307D+00
     15 -0.354058D-01  0.834089D-01  0.598676D-01 -0.262453D+00  0.640084D-01
     16  0.206788D-03  0.149183D-02  0.899478D-03 -0.184715D-02 -0.144423D-02
     17 -0.548983D-03 -0.208719D-02 -0.263809D-03  0.443559D-03 -0.123340D-02
     18  0.664624D-03 -0.639057D-02 -0.570341D-03  0.539759D-02  0.298180D-02
     19 -0.205019D-01 -0.219833D-04  0.127765D-02 -0.118495D-01 -0.308414D-01
     20 -0.175977D-01  0.452263D-02 -0.566512D-02  0.211742D-02  0.222017D-01
     21 -0.164747D-01 -0.204385D-01 -0.873872D-03 -0.379096D-01  0.868453D-02
               11            12            13            14            15 
     11  0.208271D+00
     12  0.844449D-01  0.969823D-01
     13  0.116068D+00  0.719424D-01  0.527719D+00
     14 -0.198843D+00 -0.863802D-01 -0.335764D-01  0.576440D+00
     15 -0.882357D-01 -0.898120D-01 -0.975080D-01  0.533270D-01  0.467573D+00
     16  0.922547D-03 -0.168143D-02  0.359102D-03  0.316621D-02  0.651921D-03
     17 -0.127641D-02  0.455285D-03 -0.162911D-02 -0.497752D-03 -0.431006D-02
     18 -0.302367D-02 -0.970443D-03 -0.311814D-02 -0.845747D-02 -0.206102D-01
     19  0.424137D-02 -0.247198D-01 -0.201579D+00  0.275006D-01 -0.476237D-01
     20 -0.478234D-02  0.186620D-01  0.162324D-01 -0.385605D-01 -0.567091D-02
     21  0.674716D-02  0.287698D-02 -0.693738D-01  0.380877D-02 -0.390635D-01
               16            17            18            19            20 
     16  0.279872D-01
     17  0.780720D-02  0.536662D-02
     18 -0.498440D-01 -0.175285D-01  0.130436D+00
     19 -0.355130D-02  0.521971D-02  0.212278D-01  0.287174D+00
     20  0.129413D-01  0.113175D-01 -0.292488D-01 -0.318234D-01  0.513823D-01
     21  0.514349D-01  0.293588D-01 -0.955610D-01  0.748929D-01  0.107437D-01
               21 
     21  0.752877D-01
 Red2BG is reusing G-inverse.
 Force constants in internal coordinates: 
                1             2             3             4             5 
      1  0.151928D+00
      2  0.129215D+00  0.249496D-01
      3 -0.114251D-01 -0.661429D-02  0.350764D+00
      4 -0.701634D-02 -0.118597D-01  0.280531D-02  0.339037D+00
      5 -0.418635D-02 -0.464016D-03 -0.489650D-02 -0.449123D-02  0.364150D+00
      6  0.728095D-02  0.443861D-01  0.209067D-01  0.229704D-01  0.774928D-02
      7  0.361902D-01  0.134340D-03 -0.962205D-02 -0.721323D-02 -0.345017D-02
      8 -0.105738D-02 -0.291317D-02  0.658511D-02  0.657121D-02 -0.285443D-02
      9 -0.100477D-02 -0.104134D-01  0.656254D-02 -0.464202D-02  0.518948D-02
     10  0.223404D-02  0.803235D-02  0.559287D-02 -0.102258D-01 -0.747618D-02
     11 -0.161062D-02 -0.108684D-01 -0.490422D-02  0.582337D-02  0.609959D-02
     12  0.678975D-02  0.178741D-01 -0.110120D-01  0.528057D-02 -0.454121D-02
     13 -0.450097D-02  0.608221D-03 -0.418750D-02 -0.121151D-02  0.252914D-02
     14  0.134533D-01  0.127642D-01 -0.149077D-02  0.612660D-02 -0.117086D-01
     15 -0.477579D-02 -0.857729D-02  0.782086D-03 -0.859438D-03  0.765608D-03
     16 -0.190689D-02 -0.634828D-02  0.171782D-02 -0.798065D-02  0.541471D-02
     17  0.126458D-02  0.274119D-02  0.595776D-02 -0.199334D-02 -0.325565D-02
     18  0.118336D-02  0.635409D-03 -0.824079D-02  0.737838D-02  0.249346D-02
                6             7             8             9            10 
      6  0.319317D+00
      7  0.327149D-01  0.444507D-01
      8 -0.376633D-01 -0.385234D-02  0.680716D-01
      9 -0.229980D-01 -0.965771D-02  0.515535D-02  0.777945D-01
     10  0.310030D-01  0.960238D-02 -0.376816D-01 -0.484206D-01  0.132303D+00
     11 -0.300636D-01 -0.520895D-02  0.266805D-02  0.303948D-02  0.555038D-02
     12  0.222202D-01  0.120079D-01 -0.387105D-01 -0.106566D-02 -0.156719D-01
     13  0.374853D-01 -0.106200D-02  0.114179D-03 -0.422660D-01 -0.336293D-01
     14  0.273438D-01  0.185214D-01 -0.133738D-01 -0.797822D-03  0.921956D-02
     15 -0.184998D-02 -0.124177D-01 -0.117868D-02 -0.640878D-03  0.100972D-02
     16  0.144646D-01 -0.365366D-02 -0.232164D-01  0.143165D-01  0.861806D-02
     17 -0.452201D-02  0.202104D-02  0.194215D-01 -0.332528D-03  0.121658D-01
     18 -0.919009D-02  0.237482D-02  0.473564D-04 -0.174760D-01 -0.642555D-02
               11            12            13            14            15 
     11  0.728933D-01
     12 -0.483647D-01  0.141649D+00
     13 -0.372238D-01 -0.260843D-01  0.134346D+00
     14 -0.591232D-02  0.724835D-02  0.334388D-02  0.143172D+00
     15  0.208264D-02  0.189615D-02 -0.281225D-02 -0.197281D-01  0.165598D-01
     16  0.115769D-02 -0.214810D-01  0.151172D-01  0.519333D-02  0.745253D-03
     17 -0.181323D-01 -0.113703D-03 -0.119360D-01 -0.261491D-02  0.779057D-03
     18  0.219295D-01  0.130403D-01 -0.714082D-02 -0.377044D-02  0.300342D-02
               16            17            18 
     16  0.258333D-01
     17 -0.812651D-02  0.190764D-01
     18 -0.120969D-01 -0.805480D-02  0.220183D-01
 Leave Link  716 at Sat Mar 16 10:36:28 2024, MaxMem=   104857600 cpu:               0.0 elap:               0.0
 (Enter /opt/g16/l9999.exe)
 Unable to Open any file for archive entry.
 1\1\GINC-DESKTOP-1D9QDE1\Freq\External='python3 -u ../pes/h4cclo_pes.p
 y'\ZDO\C1H4Cl1O1(2)\JH-LI\16-Mar-2024\0\\#p external="python3 -u ../pe
 s/h4cclo_pes.py" opt=(nomicro,ts,noeigen,calcall)\\Cl + CH3OH -> HCl +
  CH3O\\0,2\H,-0.5456611639,-0.3350971863,-0.0040817623\H,1.0223145866,
 0.9985563759,1.9016118392\H,0.2158520937,-0.2456942683,2.8535491432\H,
 1.1999092538,-0.7548384028,1.4473535702\C,0.5479215019,0.0165115375,1.
 8396859703\Cl,0.0751929646,-0.0547720399,-1.282022148\O,-0.6609745967,
 0.098110084,1.1294264273\\Version=ES64L-G16RevC.01\HF=-575.2800752\S2=
 0.\S2-1=0.\S2A=0.\RMSD=0.000e+00\RMSF=4.580e-06\ZeroPoint=0.0457326\Th
 ermal=0.0503178\ETot=-575.2297574\HTot=-575.2288133\GTot=-575.2623503\
 Dipole=0.,0.,0.\PG=C01 [X(C1H4Cl1O1)]\NImag=1\\0.04128742,0.01957885,0
 .03650345,0.01810118,-0.01461823,-0.06973436,0.00212424,-0.00031828,-0
 .00769163,0.11285195,-0.00017314,-0.00084763,-0.00137675,0.11363061,0.
 29529602,-0.00605813,-0.00038041,0.00085902,0.01193398,0.01341412,0.05
 017138,0.00031024,0.00239171,-0.00983347,-0.00335357,-0.00542192,0.013
 20814,0.08549430,-0.00306103,0.00053308,0.00213539,-0.00578056,-0.0081
 7101,0.02849483,0.01853183,0.06141418,-0.00337924,0.00301172,0.0017370
 7,-0.00046658,-0.00086125,0.00097969,-0.07855666,-0.06510554,0.2965410
 3,0.00429441,-0.00130170,-0.00524214,0.01342331,-0.01580531,-0.0061257
 6,-0.00428650,0.00476789,0.00030608,0.16888415,-0.00241912,0.00378010,
 0.00053595,0.02358224,-0.01446879,-0.00831356,-0.01043750,0.00733025,0
 .00783859,-0.13194780,0.20827113,0.00072415,0.00057725,-0.00401286,-0.
 00026858,0.00619710,-0.00079728,0.01860206,-0.02395379,-0.00426160,-0.
 06460792,0.08444494,0.09698228,0.00251465,0.00170586,-0.00505044,-0.09
 954297,-0.08215246,0.00731979,-0.07960010,-0.01663905,0.09577183,-0.15
 000513,0.11606818,0.07194240,0.52771906,-0.00558072,-0.00284350,0.0002
 1041,-0.10729418,-0.28051756,-0.01505792,-0.00750722,-0.05518717,0.052
 55271,0.12330686,-0.19884313,-0.08638019,-0.03357641,0.57644018,0.0000
 9587,0.00161941,-0.02025032,-0.00299485,-0.01660595,-0.03540583,0.0834
 0889,0.05986765,-0.26245293,0.06400843,-0.08823570,-0.08981200,-0.0975
 0796,0.05332700,0.46757331,-0.02317352,-0.02307329,0.00109118,-0.00167
 349,-0.00266225,0.00020679,0.00149183,0.00089948,-0.00184715,-0.001444
 23,0.00092255,-0.00168143,0.00035910,0.00316621,0.00065192,0.02798724,
 -0.00603849,-0.01619980,-0.00787062,-0.00204290,0.00155340,-0.00054898
 ,-0.00208719,-0.00026381,0.00044356,-0.00123340,-0.00127641,0.00045528
 ,-0.00162911,-0.00049775,-0.00431006,0.00780720,0.00536662,0.03261344,
 0.04725500,-0.01936326,0.00252343,0.01157974,0.00066462,-0.00639057,-0
 .00057034,0.00539759,0.00298180,-0.00302367,-0.00097044,-0.00311814,-0
 .00845747,-0.02061022,-0.04984400,-0.01752847,0.13043649,-0.02733656,0
 .00101323,0.00860106,-0.02380712,-0.00743313,-0.02050195,-0.00002198,0
 .00127765,-0.01184950,-0.03084136,0.00424137,-0.02471979,-0.20157896,0
 .02750060,-0.04762371,-0.00355130,0.00521971,0.02122780,0.28717405,-0.
 00231549,-0.02091924,0.02098459,-0.02175498,0.00719248,-0.01759767,0.0
 0452263,-0.00566512,0.00211742,0.02220167,-0.00478234,0.01866203,0.016
 23238,-0.03856048,-0.00567091,0.01294134,0.01131751,-0.02924883,-0.031
 82341,0.05138233,-0.04212200,-0.03745513,0.11080164,-0.00303856,-0.012
 33785,-0.01647466,-0.02043854,-0.00087387,-0.03790964,0.00868453,0.006
 74716,0.00287698,-0.06937382,0.00380877,-0.03906350,0.05143489,0.02935
 878,-0.09556100,0.07489287,0.01074374,0.07528774\\0.00000240,0.0000025
 8,-0.00000648,0.00000322,-0.00000405,0.00000511,-0.00000609,-0.0000029
 2,0.,-0.00000343,-0.00000579,0.00000215,0.00000294,0.00000147,-0.00000
 424,0.00000866,0.00000543,0.00000757,0.00000479,0.00000276,-0.00000409
 \\\@
 The archive entry for this job was punched.


 CONTRAIWISE...CONTINUED TWEEDLEDEE, IF IT WAS SO, IT MIGHT BE,
 AND IF IT WERE SO, IT WOULD BE.....
 BUT AS IT ISN'T, IT AIN'T....
 THAT'S LOGIC.....
 ALICE THROUGH THE LOOKING GLASS
 Job cpu time:       0 days  0 hours  0 minutes  1.0 seconds.
 Elapsed time:       0 days  0 hours  0 minutes  4.1 seconds.
 File lengths (MBytes):  RWF=      6 Int=      0 D2E=      0 Chk=      1 Scr=      1
 Normal termination of Gaussian 16 at Sat Mar 16 10:36:28 2024.
