 Entering Gaussian System, Link 0=g16
 Initial command:
 /opt/g16/l1.exe "/home/jh-li/scratch/g16/Gau-38761.inp" -scrdir="/home/jh-li/scratch/g16/"
 Entering Link 1 = /opt/g16/l1.exe PID=     38764.
  
 Copyright (c) 1988-2019, Gaussian, Inc.  All Rights Reserved.
  
 This is part of the Gaussian(R) 16 program.  It is based on
 the Gaussian(R) 09 system (copyright 2009, Gaussian, Inc.),
 the Gaussian(R) 03 system (copyright 2003, Gaussian, Inc.),
 the Gaussian(R) 98 system (copyright 1998, Gaussian, Inc.),
 the Gaussian(R) 94 system (copyright 1995, Gaussian, Inc.),
 the Gaussian 92(TM) system (copyright 1992, Gaussian, Inc.),
 the Gaussian 90(TM) system (copyright 1990, Gaussian, Inc.),
 the Gaussian 88(TM) system (copyright 1988, Gaussian, Inc.),
 the Gaussian 86(TM) system (copyright 1986, Carnegie Mellon
 University), and the Gaussian 82(TM) system (copyright 1983,
 Carnegie Mellon University). Gaussian is a federally registered
 trademark of Gaussian, Inc.
  
 This software contains proprietary and confidential information,
 including trade secrets, belonging to Gaussian, Inc.
  
 This software is provided under written license and may be
 used, copied, transmitted, or stored only in accord with that
 written license.
  
 The following legend is applicable only to US Government
 contracts under FAR:
  
                    RESTRICTED RIGHTS LEGEND
  
 Use, reproduction and disclosure by the US Government is
 subject to restrictions as set forth in subparagraphs (a)
 and (c) of the Commercial Computer Software - Restricted
 Rights clause in FAR 52.227-19.
  
 Gaussian, Inc.
 340 Quinnipiac St., Bldg. 40, Wallingford CT 06492
  
  
 ---------------------------------------------------------------
 Warning -- This program may not be used in any manner that
 competes with the business of Gaussian, Inc. or will provide
 assistance to any competitor of Gaussian, Inc.  The licensee
 of this program is prohibited from giving any competitor of
 Gaussian, Inc. access to this program.  By using this program,
 the user acknowledges that Gaussian, Inc. is engaged in the
 business of creating and licensing software in the field of
 computational chemistry and represents and warrants to the
 licensee that it is not a competitor of Gaussian, Inc. and that
 it will not use this program in any manner prohibited above.
 ---------------------------------------------------------------
  

 Cite this work as:
 Gaussian 16, Revision C.01,
 M. J. Frisch, G. W. Trucks, H. B. Schlegel, G. E. Scuseria, 
 M. A. Robb, J. R. Cheeseman, G. Scalmani, V. Barone, 
 G. A. Petersson, H. Nakatsuji, X. Li, M. Caricato, A. V. Marenich, 
 J. Bloino, B. G. Janesko, R. Gomperts, B. Mennucci, H. P. Hratchian, 
 J. V. Ortiz, A. F. Izmaylov, J. L. Sonnenberg, D. Williams-Young, 
 F. Ding, F. Lipparini, F. Egidi, J. Goings, B. Peng, A. Petrone, 
 T. Henderson, D. Ranasinghe, V. G. Zakrzewski, J. Gao, N. Rega, 
 G. Zheng, W. Liang, M. Hada, M. Ehara, K. Toyota, R. Fukuda, 
 J. Hasegawa, M. Ishida, T. Nakajima, Y. Honda, O. Kitao, H. Nakai, 
 T. Vreven, K. Throssell, J. A. Montgomery, Jr., J. E. Peralta, 
 F. Ogliaro, M. J. Bearpark, J. J. Heyd, E. N. Brothers, K. N. Kudin, 
 V. N. Staroverov, T. A. Keith, R. Kobayashi, J. Normand, 
 K. Raghavachari, A. P. Rendell, J. C. Burant, S. S. Iyengar, 
 J. Tomasi, M. Cossi, J. M. Millam, M. Klene, C. Adamo, R. Cammi, 
 J. W. Ochterski, R. L. Martin, K. Morokuma, O. Farkas, 
 J. B. Foresman, and D. J. Fox, Gaussian, Inc., Wallingford CT, 2019.
 
 ******************************************
 Gaussian 16:  ES64L-G16RevC.01  3-Jul-2019
                16-Mar-2024 
 ******************************************
 %nproc=1
 Will use up to    1 processors via shared memory.
 %oldchk=ts2-opt-freq.chk
 Copying data from "ts2-opt-freq.chk" to current chk file "/home/jh-li/scratch/g16/Gau-38764.chk"
 IOpt=  2 FromEx=T IUOpen= 4 IOptOp= 5 NList=   0 IFRang= 0 IUIn= 4 IUOut= 2.
 ----------------------------------------------------------------------
 #p external="python3 -u ../pes/h4cclo_pes.py" irc=(calcall,stepsize=10
 ,maxpoint=100,lqa) geom=allcheck
 ----------------------------------------------------------------------
 1/10=4,18=10,26=1,29=7,38=1,39=10,42=100,44=3,45=2,71=1,172=1/1,23;
 2/12=2,29=1,40=1/2;
 3/11=9,14=-4,25=1,30=1,41=9900000,43=2,71=2,140=1/1;
 4/20=17,22=2,24=3,113=1,114=1/2;
 6/7=2,8=2,9=2,10=2,18=1/1;
 7/25=1,44=-1/16;
 1/10=4,18=10,26=1,39=10,42=100,44=3,45=2,71=1/23(2);
 2/29=1/2;
 99/5=20/99;
 2/29=1/2;
 3/11=9,14=-2,25=1,30=1,41=9900000,43=2,71=2,140=1/1;
 4/16=2,20=17,22=2,24=3,113=1,114=1/2;
 7/25=1,44=-1/16;
 1/10=4,18=10,26=1,39=10,42=100,44=3,45=2,71=1/23(-4);
 2/29=1/2;
 6/7=2,8=2,9=2,10=2,18=1/1;
 99/5=20/99;
 Leave Link    1 at Sat Mar 16 11:07:24 2024, MaxMem=   104857600 cpu:               0.0 elap:               0.0
 (Enter /opt/g16/l101.exe)
 Structure from the checkpoint file:  "/home/jh-li/scratch/g16/Gau-38764.chk"
 -------------------------
 Cl + CH3OH -> HCl + CH2OH
 -------------------------
 Charge =  0 Multiplicity = 2
 Redundant internal coordinates found in file.  (old form).
 H,0,0.5940176914,-1.1258126055,1.6610458164
 H,0,-0.635015532,1.4007639573,1.9161290528
 H,0,1.0243033321,1.1096978797,1.3270534815
 H,0,-0.3804220435,0.6143668412,0.3521190078
 C,0,0.0129938631,0.7042756126,1.3886568473
 Cl,0,0.0383409666,-0.0291213076,-1.624407045
 O,0,-0.0440031942,-0.5300332237,2.059971925
 Recover connectivity data from disk.
 ITRead=  0  0  0  0  0  0  0
 MicOpt= -1 -1 -1 -1 -1 -1 -1
 NAtoms=      7 NQM=        7 NQMF=       0 NMMI=      0 NMMIF=      0
                NMic=       0 NMicF=      0.
                    Isotopes and Nuclear Properties:
 (Nuclear quadrupole moments (NQMom) in fm**2, nuclear magnetic moments (NMagM)
  in nuclear magnetons)

  Atom         1           2           3           4           5           6           7
 IAtWgt=           1           1           1           1          12          35          16
 AtmWgt=   1.0078250   1.0078250   1.0078250   1.0078250  12.0000000  34.9688527  15.9949146
 NucSpn=           1           1           1           1           0           3           0
 AtZEff=   1.0000000   1.0000000   1.0000000   1.0000000   3.6000000  14.2400000   5.6000000
 NQMom=    0.0000000   0.0000000   0.0000000   0.0000000   0.0000000  -8.1650000   0.0000000
 NMagM=    2.7928460   2.7928460   2.7928460   2.7928460   0.0000000   0.8218740   0.0000000
 AtZNuc=   1.0000000   1.0000000   1.0000000   1.0000000   6.0000000  17.0000000   8.0000000
 Leave Link  101 at Sat Mar 16 11:07:24 2024, MaxMem=   104857600 cpu:               0.1 elap:               0.2
 (Enter /opt/g16/l123.exe)
 IRC-IRC-IRC-IRC-IRC-IRC-IRC-IRC-IRC-IRC-IRC-IRC-IRC-IRC-IRC-IRC-IRC-IRC
 ------------------------------------------------------------------------
 INPUT DATA FOR L123
 ------------------------------------------------------------------------
 GENERAL PARAMETERS:
 Follow reaction path in both directions.
 Maximum points per path      = 100
 Step size                    =   0.100 bohr
 Integration scheme           = LQA                                 
 Initial Hessian              = CalcFC
 Hessian evaluation           = Analytic at all predictor steps
                              = Update at all corrector steps
 Hessian updating method      = Bofill                              
 ------------------------------------------------------------------------
 IRC-IRC-IRC-IRC-IRC-IRC-IRC-IRC-IRC-IRC-IRC-IRC-IRC-IRC-IRC-IRC-IRC-IRC
 Leave Link  123 at Sat Mar 16 11:07:24 2024, MaxMem=   104857600 cpu:               0.0 elap:               0.0
 (Enter /opt/g16/l202.exe)
                          Input orientation:                          
 ---------------------------------------------------------------------
 Center     Atomic      Atomic             Coordinates (Angstroms)
 Number     Number       Type             X           Y           Z
 ---------------------------------------------------------------------
      1          1           0        0.594018   -1.125813    1.661046
      2          1           0       -0.635016    1.400764    1.916129
      3          1           0        1.024303    1.109698    1.327053
      4          1           0       -0.380422    0.614367    0.352119
      5          6           0        0.012994    0.704276    1.388657
      6         17           0        0.038341   -0.029121   -1.624407
      7          8           0       -0.044003   -0.530033    2.059972
 ---------------------------------------------------------------------
                    Distance matrix (angstroms):
                    1          2          3          4          5
     1  H    0.000000
     2  H    2.821202   0.000000
     3  H    2.300914   1.784676   0.000000
     4  H    2.385591   1.769001   1.780198   0.000000
     5  C    1.939332   1.087768   1.091288   1.112327   0.000000
     6  Cl   3.507949   3.877290   3.313631   2.120400   3.101140
     7  O    0.959774   2.024343   2.089777   2.083168   1.406212
                    6          7
     6  Cl   0.000000
     7  O    3.719186   0.000000
 Symmetry turned off by external request.
 Stoichiometry    CH4ClO(2)
 Framework group  C1[X(CH4ClO)]
 Deg. of freedom    15
 Full point group                 C1      NOp   1
 Rotational constants (GHZ):          29.1869588           2.6098531           2.4416083
 Leave Link  202 at Sat Mar 16 11:07:24 2024, MaxMem=   104857600 cpu:               0.0 elap:               0.0
 (Enter /opt/g16/l301.exe)
 Standard basis: STO-3G (5D, 7F)
 Ernie: Thresh=  0.10000D-02 Tol=  0.10000D-05 Strict=F.
    23 basis functions,    69 primitive gaussians,    23 cartesian basis functions
    18 alpha electrons       17 beta electrons
       nuclear repulsion energy        89.0732540345 Hartrees.
 IExCor=    0 DFT=F Ex=HF Corr=None ExCW=0 ScaHFX=  1.000000
 ScaDFX=  1.000000  1.000000  1.000000  1.000000 ScalE2=  1.000000  1.000000
 IRadAn=      5 IRanWt=     -1 IRanGd=            0 ICorTp=0 IEmpDi=  4
 NAtoms=    7 NActive=    7 NUniq=    7 SFac= 1.00D+00 NAtFMM=   60 NAOKFM=F Big=F
 Integral buffers will be    131072 words long.
 Raffenetti 2 integral format.
 Two-electron integral symmetry is turned off.
 Leave Link  301 at Sat Mar 16 11:07:24 2024, MaxMem=   104857600 cpu:               0.0 elap:               0.0
 (Enter /opt/g16/l402.exe)
 External calculation of energy, first and second derivatives.
 Running external command "python3 -u ../pes/h4cclo_pes.py R"
         input file       "/home/jh-li/scratch/g16/Gau-38764.EIn"
         output file      "/home/jh-li/scratch/g16/Gau-38764.EOu"
         message file     "/home/jh-li/scratch/g16/Gau-38764.EMs"
         fchk file        "/home/jh-li/scratch/g16/Gau-38764.EFC"
         mat. el file     "/home/jh-li/scratch/g16/Gau-38764.EUF"
 Recovered energy= -575.297021226     dipole=      0.000000000000      0.000000000000      0.000000000000
 Energy=    -575.297021     NIter=   0.
 Dipole moment=       0.000000       0.000000       0.000000
 Leave Link  402 at Sat Mar 16 11:07:25 2024, MaxMem=   104857600 cpu:               0.0 elap:               0.8
 (Enter /opt/g16/l601.exe)
 Leave Link  601 at Sat Mar 16 11:07:25 2024, MaxMem=   104857600 cpu:               0.0 elap:               0.0
 (Enter /opt/g16/l716.exe)
 Dipole        = 0.00000000D+00 0.00000000D+00 0.00000000D+00
 -------------------------------------------------------------------
 Center     Atomic                   Forces (Hartrees/Bohr)
 Number     Number              X              Y              Z
 -------------------------------------------------------------------
      1        1          -0.000001185    0.000002329    0.000000349
      2        1          -0.000001632   -0.000001813   -0.000000980
      3        1          -0.000002574   -0.000005919    0.000003516
      4        1           0.000002352    0.000002031   -0.000001609
      5        6           0.000009283    0.000004733    0.000002552
      6       17           0.000006803    0.000002750   -0.000000399
      7        8          -0.000014219   -0.000006717   -0.000001507
 -------------------------------------------------------------------
 Cartesian Forces:  Max     0.000014219 RMS     0.000004873
 Force constants in Cartesian coordinates: 
                1             2             3             4             5 
      1  0.235041D+00
      2 -0.207699D+00  0.237743D+00
      3 -0.148061D+00  0.109693D+00  0.108009D+00
      4  0.195168D-02 -0.134870D-02 -0.120432D-03  0.151433D+00
      5 -0.231299D-02 -0.488822D-02  0.332300D-02 -0.108380D+00  0.172741D+00
      6 -0.112508D-04  0.441005D-02 -0.868202D-03 -0.882902D-01  0.844398D-01
      7  0.133409D-02 -0.989707D-03  0.136509D-02 -0.162795D-01 -0.581733D-02
      8 -0.222012D-02  0.273130D-02  0.634982D-03  0.187258D-01  0.970681D-02
      9 -0.695039D-04 -0.185901D-02 -0.608027D-04  0.157042D-01  0.605689D-02
     10  0.294399D-03 -0.405616D-03 -0.700696D-03  0.676260D-02  0.300986D-02
     11 -0.955759D-04  0.115450D-02  0.118304D-02 -0.796222D-02 -0.223480D-02
     12  0.292756D-02 -0.420067D-03 -0.585069D-03 -0.107498D-01 -0.435066D-02
     13 -0.145497D-04  0.296748D-01 -0.162536D-01 -0.146348D+00  0.905371D-01
     14 -0.554920D-02 -0.274753D-01  0.188917D-01  0.972890D-01 -0.144177D+00
     15 -0.540186D-03 -0.170135D-01  0.601429D-02  0.839020D-01 -0.770481D-01
     16  0.278734D-04 -0.371333D-04  0.471212D-04 -0.385545D-03 -0.231237D-03
     17 -0.394909D-03  0.323028D-03 -0.111607D-03  0.732759D-03 -0.189784D-04
     18 -0.126886D-02  0.963937D-03  0.822516D-03  0.280647D-02 -0.455977D-03
     19 -0.238628D+00  0.180813D+00  0.163718D+00  0.286467D-02  0.231995D-01
     20  0.218265D+00 -0.209585D+00 -0.133609D+00  0.948588D-03 -0.311301D-01
     21  0.147025D+00 -0.957751D-01 -0.113328D+00 -0.324485D-02 -0.119710D-01
                6             7             8             9            10 
      6  0.122024D+00
      7 -0.132063D-02  0.293876D+00
      8 -0.743364D-04  0.917969D-01  0.919839D-01
      9  0.158705D-02 -0.115504D-01 -0.977593D-02  0.503833D-01
     10  0.163035D-01 -0.113366D-01 -0.545350D-02 -0.269692D-01  0.754385D-01
     11 -0.176128D-01 -0.261095D-02 -0.208404D-03 -0.103207D-01  0.893065D-02
     12 -0.166773D-01  0.314743D-03 -0.433414D-02 -0.569022D-02  0.792088D-01
     13  0.872784D-01 -0.275022D+00 -0.743324D-01  0.667634D-02 -0.742551D-01
     14 -0.908604D-01 -0.786632D-01 -0.808577D-01 -0.230164D-02 -0.111944D-01
     15 -0.118448D+00  0.957560D-02  0.294037D-02 -0.463308D-01 -0.739660D-01
     16 -0.214652D-03  0.163443D-03 -0.433491D-03 -0.122175D-02 -0.667447D-03
     17  0.725768D-03  0.275541D-03  0.561474D-03  0.757275D-03  0.172092D-02
     18  0.216488D-02  0.659992D-03  0.110008D-02  0.281499D-02  0.519607D-02
     19 -0.137380D-01  0.725259D-02 -0.280938D-01  0.174291D-01  0.376350D-02
     20  0.189674D-01 -0.399066D-02 -0.239126D-01  0.174453D-01  0.338704D-02
     21  0.102221D-01  0.957662D-03  0.950900D-02 -0.270055D-02  0.918344D-03
               11            12            13            14            15 
     11  0.540714D-01
     12  0.132335D-01  0.227918D+00
     13 -0.765027D-02 -0.613773D-01  0.571576D+00
     14 -0.482229D-01 -0.375491D-01 -0.180010D-01  0.513878D+00
     15 -0.220435D-01 -0.190566D+00 -0.396590D-01  0.462808D-01  0.480342D+00
     16 -0.429280D-03 -0.295791D-02  0.793918D-03 -0.532280D-03  0.553135D-02
     17  0.811644D-03  0.420201D-02 -0.286849D-02  0.486118D-03 -0.836616D-02
     18  0.154213D-02  0.132120D-01 -0.922191D-02  0.561977D-02 -0.267994D-01
     19  0.981628D-02 -0.736822D-02 -0.767120D-01  0.166491D-01  0.151531D-01
     20 -0.536627D-02  0.292140D-01 -0.173632D-01 -0.213650D+00  0.752599D-01
     21  0.340132D-01 -0.276357D-01  0.325584D-01  0.599243D-01 -0.104197D+00
               16            17            18            19            20 
     16  0.977889D-04
     17  0.106626D-03  0.114060D-03
     18  0.126720D-03  0.281300D-03  0.218225D-02
     19 -0.294641D-04  0.427394D-03  0.170119D-02  0.301475D+00
     20  0.155718D-02 -0.227768D-02 -0.904948D-02 -0.202803D+00  0.485927D+00
     21 -0.131326D-02  0.251476D-02  0.560936D-02 -0.176897D+00  0.177502D-02
               21 
     21  0.232023D+00
 Leave Link  716 at Sat Mar 16 11:07:25 2024, MaxMem=   104857600 cpu:               0.0 elap:               0.0
 (Enter /opt/g16/l123.exe)
 IRC-IRC-IRC-IRC-IRC-IRC-IRC-IRC-IRC-IRC-IRC-IRC-IRC-IRC-IRC-IRC-IRC-IRC
          ******** Start new reaction path calculation ********
 Current Structure is TS -> form Hessian eigenvectors.
                            Diagonalizing Hessian.
 Supplied step size of   0.1000 bohr.
    Integration on MW PES will use step size of   0.1246 sqrt(amu)*bohr.
 Point Number:   0          Path Number:   1
 Calculating another point on the path.
 Point Number  1 in FORWARD path direction.
 Using LQA Reaction Path Following.
 IRC-IRC-IRC-IRC-IRC-IRC-IRC-IRC-IRC-IRC-IRC-IRC-IRC-IRC-IRC-IRC-IRC-IRC
 Leave Link  123 at Sat Mar 16 11:07:25 2024, MaxMem=   104857600 cpu:               0.0 elap:               0.0
 (Enter /opt/g16/l202.exe)
                          Input orientation:                          
 ---------------------------------------------------------------------
 Center     Atomic      Atomic             Coordinates (Angstroms)
 Number     Number       Type             X           Y           Z
 ---------------------------------------------------------------------
      1          1           0        0.585778   -1.136969    1.708281
      2          1           0       -0.670081    1.381360    1.916472
      3          1           0        1.003979    1.097277    1.361007
      4          1           0       -0.377971    0.582988    0.363378
      5          6           0       -0.005458    0.685228    1.408991
      6         17           0        0.016595   -0.042061   -1.592766
      7          8           0       -0.066320   -0.543398    2.088057
 ---------------------------------------------------------------------
                    Distance matrix (angstroms):
                    1          2          3          4          5
     1  H    0.000000
     2  H    2.821791   0.000000
     3  H    2.299424   1.786539   0.000000
     4  H    2.386593   1.770544   1.780322   0.000000
     5  C    1.938952   1.088054   1.091353   1.114687   0.000000
     6  Cl   3.524160   3.848688   3.316292   2.091140   3.088686
     7  O    0.960097   2.024516   2.089488   2.083360   1.405118
                    6          7
     6  Cl   0.000000
     7  O    3.715732   0.000000
 Symmetry turned off by external request.
 Stoichiometry    CH4ClO(2)
 Framework group  C1[X(CH4ClO)]
 Deg. of freedom    15
 Full point group                 C1      NOp   1
 Rotational constants (GHZ):          29.3926910           2.6189724           2.4515295
 Leave Link  202 at Sat Mar 16 11:07:25 2024, MaxMem=   104857600 cpu:               0.0 elap:               0.0
 (Enter /opt/g16/l301.exe)
 Standard basis: STO-3G (5D, 7F)
 Ernie: Thresh=  0.10000D-02 Tol=  0.10000D-05 Strict=F.
    23 basis functions,    69 primitive gaussians,    23 cartesian basis functions
    18 alpha electrons       17 beta electrons
       nuclear repulsion energy        89.2292968992 Hartrees.
 IExCor=    0 DFT=F Ex=HF Corr=None ExCW=0 ScaHFX=  1.000000
 ScaDFX=  1.000000  1.000000  1.000000  1.000000 ScalE2=  1.000000  1.000000
 IRadAn=      5 IRanWt=     -1 IRanGd=            0 ICorTp=0 IEmpDi=  4
 NAtoms=    7 NActive=    7 NUniq=    7 SFac= 1.00D+00 NAtFMM=   60 NAOKFM=F Big=F
 Integral buffers will be    131072 words long.
 Raffenetti 2 integral format.
 Two-electron integral symmetry is turned off.
 Leave Link  301 at Sat Mar 16 11:07:25 2024, MaxMem=   104857600 cpu:               0.0 elap:               0.0
 (Enter /opt/g16/l402.exe)
 External calculation of energy, first and second derivatives.
 Running external command "python3 -u ../pes/h4cclo_pes.py R"
         input file       "/home/jh-li/scratch/g16/Gau-38764.EIn"
         output file      "/home/jh-li/scratch/g16/Gau-38764.EOu"
         message file     "/home/jh-li/scratch/g16/Gau-38764.EMs"
         fchk file        "/home/jh-li/scratch/g16/Gau-38764.EFC"
         mat. el file     "/home/jh-li/scratch/g16/Gau-38764.EUF"
 Recovered energy= -575.297023238     dipole=      0.000000000000      0.000000000000      0.000000000000
 Energy=    -575.297023     NIter=   0.
 Dipole moment=       0.000000       0.000000       0.000000
 Leave Link  402 at Sat Mar 16 11:07:26 2024, MaxMem=   104857600 cpu:               0.0 elap:               0.9
 (Enter /opt/g16/l716.exe)
 Dipole        = 0.00000000D+00 0.00000000D+00 0.00000000D+00
 -------------------------------------------------------------------
 Center     Atomic                   Forces (Hartrees/Bohr)
 Number     Number              X              Y              Z
 -------------------------------------------------------------------
      1        1          -0.000183892    0.000185963    0.000121360
      2        1           0.000109124   -0.000130935   -0.000121715
      3        1          -0.000074766   -0.000016921   -0.000013999
      4        1           0.000064869   -0.000004495    0.000068911
      5        6          -0.000047456    0.000044094   -0.000011205
      6       17          -0.000016152    0.000046955    0.000104554
      7        8           0.000147271   -0.000127225   -0.000146236
 -------------------------------------------------------------------
 Cartesian Forces:  Max     0.000185963 RMS     0.000102125
 Force constants in Cartesian coordinates: 
                1             2             3             4             5 
      1  0.244987D+00
      2 -0.210871D+00  0.235692D+00
      3 -0.143892D+00  0.102392D+00  0.997736D-01
      4  0.197761D-02 -0.136852D-02 -0.119731D-04  0.156689D+00
      5 -0.231489D-02 -0.486433D-02  0.329307D-02 -0.110883D+00  0.172509D+00
      6  0.103384D-03  0.439199D-02 -0.926645D-03 -0.871143D-01  0.807235D-01
      7  0.132747D-02 -0.901382D-03  0.137955D-02 -0.165806D-01 -0.612984D-02
      8 -0.223110D-02  0.273767D-02  0.551523D-03  0.186373D-01  0.990100D-02
      9  0.205860D-04 -0.194928D-02 -0.770605D-04  0.150472D-01  0.597472D-02
     10  0.287537D-03 -0.426805D-03 -0.685909D-03  0.651709D-02  0.331598D-02
     11 -0.203989D-04  0.108975D-02  0.110794D-02 -0.750917D-02 -0.246391D-02
     12  0.321497D-02 -0.528117D-03 -0.734799D-03 -0.104292D-01 -0.451398D-02
     13  0.177153D-03  0.301393D-01 -0.168611D-01 -0.151293D+00  0.926129D-01
     14 -0.563737D-02 -0.273591D-01  0.189449D-01  0.995336D-01 -0.144131D+00
     15 -0.780379D-03 -0.158716D-01  0.586469D-02  0.829561D-01 -0.739232D-01
     16  0.303851D-04 -0.305626D-04  0.369204D-04 -0.369633D-03 -0.247514D-03
     17 -0.452296D-03  0.323171D-03 -0.996446D-04  0.739167D-03  0.449868D-05
     18 -0.141897D-02  0.999156D-03  0.849346D-03  0.292777D-02 -0.408588D-03
     19 -0.248781D+00  0.183467D+00  0.160031D+00  0.305938D-02  0.236519D-01
     20  0.221520D+00 -0.207616D+00 -0.126184D+00  0.856313D-03 -0.309552D-01
     21  0.142755D+00 -0.894343D-01 -0.104746D+00 -0.336836D-02 -0.111513D-01
                6             7             8             9            10 
      6  0.116498D+00
      7 -0.153557D-02  0.292796D+00
      8  0.143195D-03  0.932456D-01  0.932280D-01
      9  0.184669D-02 -0.819943D-02 -0.874900D-02  0.499878D-01
     10  0.166104D-01 -0.108223D-01 -0.574155D-02 -0.267939D-01  0.712662D-01
     11 -0.176743D-01 -0.250369D-02 -0.382622D-03 -0.106392D-01  0.923689D-02
     12 -0.164519D-01  0.398808D-03 -0.470641D-02 -0.674966D-02  0.740461D-01
     13  0.864289D-01 -0.274082D+00 -0.755039D-01  0.345436D-02 -0.703125D-01
     14 -0.875946D-01 -0.798143D-01 -0.822026D-01 -0.337267D-02 -0.111094D-01
     15 -0.113056D+00  0.627975D-02  0.228808D-02 -0.455154D-01 -0.694992D-01
     16 -0.221199D-03  0.239710D-03 -0.433212D-03 -0.125331D-02 -0.672282D-03
     17  0.770770D-03  0.247037D-03  0.601423D-03  0.836318D-03  0.170850D-02
     18  0.232962D-02  0.545779D-03  0.127122D-02  0.311963D-02  0.525882D-02
     19 -0.142644D-01  0.710980D-02 -0.279839D-01  0.177230D-01  0.373593D-02
     20  0.192347D-01 -0.414315D-02 -0.238780D-01  0.179013D-01  0.301147D-02
     21  0.976379D-02  0.113313D-02  0.920143D-02 -0.260916D-02  0.105488D-02
               11            12            13            14            15 
     11  0.540451D-01
     12  0.144719D-01  0.222674D+00
     13 -0.774210D-02 -0.566942D-01  0.572880D+00
     14 -0.485987D-01 -0.394772D-01 -0.191112D-01  0.515352D+00
     15 -0.229727D-01 -0.184663D+00 -0.400661D-01  0.443430D-01  0.470901D+00
     16 -0.494669D-03 -0.320776D-02  0.655496D-03 -0.507167D-03  0.581575D-02
     17  0.876114D-03  0.464940D-02 -0.283055D-02  0.356921D-03 -0.907875D-02
     18  0.193231D-02  0.148662D-01 -0.925207D-02  0.546616D-02 -0.295842D-01
     19  0.903183D-02 -0.733060D-02 -0.780052D-01  0.166437D-01  0.152912D-01
     20 -0.456053D-02  0.300997D-01 -0.175680D-01 -0.213434D+00  0.752250D-01
     21  0.337682D-01 -0.289679D-01  0.329911D-01  0.616951D-01 -0.103930D+00
               16            17            18            19            20 
     16  0.126328D-03
     17  0.122555D-03  0.163393D-03
     18  0.167010D-03  0.290694D-03  0.227723D-02
     19 -0.946813D-05  0.465383D-03  0.177118D-02  0.312877D+00
     20  0.159097D-02 -0.232594D-02 -0.954924D-02 -0.205267D+00  0.482774D+00
     21 -0.133993D-02  0.263489D-02  0.614949D-02 -0.173222D+00 -0.672360D-02
               21 
     21  0.224333D+00
 Leave Link  716 at Sat Mar 16 11:07:26 2024, MaxMem=   104857600 cpu:               0.0 elap:               0.0
 (Enter /opt/g16/l123.exe)
 IRC-IRC-IRC-IRC-IRC-IRC-IRC-IRC-IRC-IRC-IRC-IRC-IRC-IRC-IRC-IRC-IRC-IRC
 Pt  1 Step number   1 out of a maximum of  20
 Point Number:   1          Path Number:   1
                    CURRENT STRUCTURE
                Cartesian Coordinates (Ang):                
 ---------------------------------------------------------------------
 Center     Atomic                     Coordinates (Angstroms)
 Number     Number                        X           Y           Z
 ---------------------------------------------------------------------
      1          1                    0.585778   -1.136969    1.708281
      2          1                   -0.670081    1.381360    1.916472
      3          1                    1.003979    1.097277    1.361007
      4          1                   -0.377971    0.582988    0.363378
      5          6                   -0.005458    0.685228    1.408991
      6         17                    0.016595   -0.042061   -1.592766
      7          8                   -0.066320   -0.543398    2.088057
 ---------------------------------------------------------------------
   CHANGE IN THE REACTION COORDINATE =    0.12464
   NET REACTION COORDINATE UP TO THIS POINT =    0.12464
  # OF POINTS ALONG THE PATH =   1
  # OF STEPS =   1

 Calculating another point on the path.
 Point Number  2 in FORWARD path direction.
 Using LQA Reaction Path Following.
   LQA: T_Est iteration completed in    6 iterations.
 IRC-IRC-IRC-IRC-IRC-IRC-IRC-IRC-IRC-IRC-IRC-IRC-IRC-IRC-IRC-IRC-IRC-IRC
 Leave Link  123 at Sat Mar 16 11:07:26 2024, MaxMem=   104857600 cpu:               0.1 elap:               0.1
 (Enter /opt/g16/l202.exe)
                          Input orientation:                          
 ---------------------------------------------------------------------
 Center     Atomic      Atomic             Coordinates (Angstroms)
 Number     Number       Type             X           Y           Z
 ---------------------------------------------------------------------
      1          1           0        0.596276   -1.133752    1.726123
      2          1           0       -0.683280    1.376012    1.888391
      3          1           0        1.004548    1.098925    1.366833
      4          1           0       -0.353804    0.566746    0.346857
      5          6           0       -0.002847    0.680647    1.401313
      6         17           0        0.015988   -0.040487   -1.589127
      7          8           0       -0.068392   -0.542484    2.087270
 ---------------------------------------------------------------------
                    Distance matrix (angstroms):
                    1          2          3          4          5
     1  H    0.000000
     2  H    2.821792   0.000000
     3  H    2.297960   1.788173   0.000000
     4  H    2.386780   1.771946   1.780080   0.000000
     5  C    1.938167   1.088011   1.091325   1.117149   0.000000
     6  Cl   3.538763   3.819500   3.318615   2.062405   3.076219
     7  O    0.960109   2.024418   2.089128   2.083480   1.403881
                    6          7
     6  Cl   0.000000
     7  O    3.711471   0.000000
 Symmetry turned off by external request.
 Stoichiometry    CH4ClO(2)
 Framework group  C1[X(CH4ClO)]
 Deg. of freedom    15
 Full point group                 C1      NOp   1
 Rotational constants (GHZ):          29.5997014           2.6289681           2.4621989
 Leave Link  202 at Sat Mar 16 11:07:26 2024, MaxMem=   104857600 cpu:               0.0 elap:               0.0
 (Enter /opt/g16/l301.exe)
 Standard basis: STO-3G (5D, 7F)
 Ernie: Thresh=  0.10000D-02 Tol=  0.10000D-05 Strict=F.
    23 basis functions,    69 primitive gaussians,    23 cartesian basis functions
    18 alpha electrons       17 beta electrons
       nuclear repulsion energy        89.3981717404 Hartrees.
 IExCor=    0 DFT=F Ex=HF Corr=None ExCW=0 ScaHFX=  1.000000
 ScaDFX=  1.000000  1.000000  1.000000  1.000000 ScalE2=  1.000000  1.000000
 IRadAn=      5 IRanWt=     -1 IRanGd=            0 ICorTp=0 IEmpDi=  4
 NAtoms=    7 NActive=    7 NUniq=    7 SFac= 1.00D+00 NAtFMM=   60 NAOKFM=F Big=F
 Integral buffers will be    131072 words long.
 Raffenetti 2 integral format.
 Two-electron integral symmetry is turned off.
 Leave Link  301 at Sat Mar 16 11:07:26 2024, MaxMem=   104857600 cpu:               0.0 elap:               0.1
 (Enter /opt/g16/l402.exe)
 External calculation of energy, first and second derivatives.
 Running external command "python3 -u ../pes/h4cclo_pes.py R"
         input file       "/home/jh-li/scratch/g16/Gau-38764.EIn"
         output file      "/home/jh-li/scratch/g16/Gau-38764.EOu"
         message file     "/home/jh-li/scratch/g16/Gau-38764.EMs"
         fchk file        "/home/jh-li/scratch/g16/Gau-38764.EFC"
         mat. el file     "/home/jh-li/scratch/g16/Gau-38764.EUF"
 Recovered energy= -575.297032488     dipole=      0.000000000000      0.000000000000      0.000000000000
 Energy=    -575.297032     NIter=   0.
 Dipole moment=       0.000000       0.000000       0.000000
 Leave Link  402 at Sat Mar 16 11:07:27 2024, MaxMem=   104857600 cpu:               0.0 elap:               0.8
 (Enter /opt/g16/l716.exe)
 Dipole        = 0.00000000D+00 0.00000000D+00 0.00000000D+00
 -------------------------------------------------------------------
 Center     Atomic                   Forces (Hartrees/Bohr)
 Number     Number              X              Y              Z
 -------------------------------------------------------------------
      1        1          -0.000153184    0.000165352    0.000125507
      2        1           0.000099650   -0.000130174   -0.000144901
      3        1          -0.000068725   -0.000010105   -0.000012974
      4        1           0.000081204   -0.000021541    0.000049079
      5        6          -0.000027707   -0.000009783   -0.000093265
      6       17          -0.000042394    0.000095916    0.000231158
      7        8           0.000110337   -0.000092188   -0.000153250
 -------------------------------------------------------------------
 Cartesian Forces:  Max     0.000231158 RMS     0.000108461
 Force constants in Cartesian coordinates: 
                1             2             3             4             5 
      1  0.254627D+00
      2 -0.214161D+00  0.234109D+00
      3 -0.139781D+00  0.957240D-01  0.922685D-01
      4  0.198943D-02 -0.139375D-02  0.103487D-03  0.162089D+00
      5 -0.231094D-02 -0.484070D-02  0.327543D-02 -0.113524D+00  0.172455D+00
      6  0.221064D-03  0.437721D-02 -0.974215D-03 -0.858681D-01  0.771541D-01
      7  0.131367D-02 -0.803277D-03  0.139093D-02 -0.168562D-01 -0.644215D-02
      8 -0.223929D-02  0.275092D-02  0.474561D-03  0.185542D-01  0.100883D-01
      9  0.108090D-03 -0.203760D-02 -0.931769D-04  0.143931D-01  0.587897D-02
     10  0.277700D-03 -0.440844D-03 -0.673104D-03  0.625023D-02  0.360833D-02
     11  0.629682D-04  0.102986D-02  0.103416D-02 -0.704993D-02 -0.266881D-02
     12  0.352755D-02 -0.646313D-03 -0.863086D-03 -0.101326D-01 -0.464306D-02
     13  0.407639D-03  0.305529D-01 -0.174326D-01 -0.156416D+00  0.948596D-01
     14 -0.573344D-02 -0.272882D-01  0.190179D-01  0.101958D+00 -0.144257D+00
     15 -0.104949D-02 -0.147473D-01  0.569663D-02  0.819544D-01 -0.709523D-01
     16  0.311468D-04 -0.242809D-04  0.299625D-04 -0.348559D-03 -0.262902D-03
     17 -0.511796D-03  0.322261D-03 -0.933396D-04  0.739819D-03  0.276023D-04
     18 -0.158302D-02  0.103478D-02  0.872491D-03  0.303980D-02 -0.360607D-03
     19 -0.258641D+00  0.186279D+00  0.156359D+00  0.329120D-02  0.240786D-01
     20  0.224887D+00 -0.206080D+00 -0.119427D+00  0.722380D-03 -0.308051D-01
     21  0.138560D+00 -0.837054D-01 -0.969045D-01 -0.348313D-02 -0.103579D-01
                6             7             8             9            10 
      6  0.111174D+00
      7 -0.177105D-02  0.291845D+00
      8  0.364218D-03  0.946645D-01  0.944328D-01
      9  0.209339D-02 -0.488604D-02 -0.769065D-02  0.496406D-01
     10  0.168937D-01 -0.103231D-01 -0.600642D-02 -0.265958D-01  0.672575D-01
     11 -0.177204D-01 -0.238293D-02 -0.544298D-03 -0.109440D-01  0.937399D-02
     12 -0.162290D-01  0.524396D-03 -0.509654D-02 -0.783742D-02  0.688375D-01
     13  0.855258D-01 -0.273260D+00 -0.766584D-01  0.242058D-03 -0.664953D-01
     14 -0.844836D-01 -0.809082D-01 -0.835047D-01 -0.446217D-02 -0.108411D-01
     15 -0.107843D+00  0.301419D-02  0.161526D-02 -0.447419D-01 -0.649767D-01
     16 -0.226012D-03  0.317281D-03 -0.427260D-03 -0.127578D-02 -0.679236D-03
     17  0.816369D-03  0.214113D-03  0.638743D-03  0.916870D-03  0.168227D-02
     18  0.250041D-02  0.409774D-03  0.144381D-02  0.343500D-02  0.527763D-02
     19 -0.147679D-01  0.695115D-02 -0.278986D-01  0.180128D-01  0.371173D-02
     20  0.194874D-01 -0.434228D-02 -0.238568D-01  0.183407D-01  0.261887D-02
     21  0.928264D-02  0.131969D-02  0.888940D-02 -0.249375D-02  0.122868D-02
               11            12            13            14            15 
     11  0.539760D-01
     12  0.154196D-01  0.216748D+00
     13 -0.767909D-02 -0.520602D-01  0.574585D+00
     14 -0.489059D-01 -0.411397D-01 -0.205063D-01  0.517214D+00
     15 -0.236484D-01 -0.178163D+00 -0.404745D-01  0.423214D-01  0.461261D+00
     16 -0.556559D-03 -0.344163D-02  0.501606D-03 -0.477772D-03  0.606186D-02
     17  0.929707D-03  0.511523D-02 -0.276444D-02  0.219754D-03 -0.981815D-02
     18  0.235130D-02  0.166314D-01 -0.918871D-02  0.527665D-02 -0.325514D-01
     19  0.823030D-02 -0.725665D-02 -0.793035D-01  0.165067D-01  0.154675D-01
     20 -0.381111D-02  0.309859D-01 -0.178080D-01 -0.213495D+00  0.752393D-01
     21  0.335013D-01 -0.303154D-01  0.333888D-01  0.634735D-01 -0.103640D+00
               16            17            18            19            20 
     16  0.164331D-03
     17  0.137908D-03  0.225031D-03
     18  0.205699D-03  0.311054D-03  0.240867D-02
     19  0.139245D-04  0.501880D-03  0.183822D-02  0.323962D+00
     20  0.161128D-02 -0.236362D-02 -0.100553D-01 -0.207688D+00  0.480416D+00
     21 -0.135672D-02  0.275597D-02  0.671145D-02 -0.169654D+00 -0.145662D-01
               21 
     21  0.217353D+00
 Leave Link  716 at Sat Mar 16 11:07:27 2024, MaxMem=   104857600 cpu:               0.0 elap:               0.0
 (Enter /opt/g16/l123.exe)
 IRC-IRC-IRC-IRC-IRC-IRC-IRC-IRC-IRC-IRC-IRC-IRC-IRC-IRC-IRC-IRC-IRC-IRC
 Pt  2 Step number   1 out of a maximum of  20
 Point Number:   2          Path Number:   1
                    CURRENT STRUCTURE
                Cartesian Coordinates (Ang):                
 ---------------------------------------------------------------------
 Center     Atomic                     Coordinates (Angstroms)
 Number     Number                        X           Y           Z
 ---------------------------------------------------------------------
      1          1                    0.596276   -1.133752    1.726123
      2          1                   -0.683280    1.376012    1.888391
      3          1                    1.004548    1.098925    1.366833
      4          1                   -0.353804    0.566746    0.346857
      5          6                   -0.002847    0.680647    1.401313
      6         17                    0.015988   -0.040487   -1.589127
      7          8                   -0.068392   -0.542484    2.087270
 ---------------------------------------------------------------------
   CHANGE IN THE REACTION COORDINATE =    0.12397
   NET REACTION COORDINATE UP TO THIS POINT =    0.24861
  # OF POINTS ALONG THE PATH =   2
  # OF STEPS =   1

 Calculating another point on the path.
 Point Number  3 in FORWARD path direction.
 Using LQA Reaction Path Following.
   LQA: T_Est iteration completed in    4 iterations.
 IRC-IRC-IRC-IRC-IRC-IRC-IRC-IRC-IRC-IRC-IRC-IRC-IRC-IRC-IRC-IRC-IRC-IRC
 Leave Link  123 at Sat Mar 16 11:07:27 2024, MaxMem=   104857600 cpu:               0.0 elap:               0.0
 (Enter /opt/g16/l202.exe)
                          Input orientation:                          
 ---------------------------------------------------------------------
 Center     Atomic      Atomic             Coordinates (Angstroms)
 Number     Number       Type             X           Y           Z
 ---------------------------------------------------------------------
      1          1           0        0.607065   -1.129882    1.744021
      2          1           0       -0.696130    1.370334    1.860066
      3          1           0        1.004596    1.100881    1.371606
      4          1           0       -0.330059    0.550347    0.330631
      5          6           0       -0.000408    0.676094    1.393519
      6         17           0        0.015290   -0.038959   -1.585351
      7          8           0       -0.070088   -0.541456    2.086278
 ---------------------------------------------------------------------
                    Distance matrix (angstroms):
                    1          2          3          4          5
     1  H    0.000000
     2  H    2.821855   0.000000
     3  H    2.296308   1.789879   0.000000
     4  H    2.387268   1.773572   1.779894   0.000000
     5  C    1.937376   1.087963   1.091310   1.119917   0.000000
     6  Cl   3.553172   3.789871   3.319873   2.034093   3.063529
     7  O    0.960167   2.024362   2.088773   2.083727   1.402569
                    6          7
     6  Cl   0.000000
     7  O    3.706838   0.000000
 Symmetry turned off by external request.
 Stoichiometry    CH4ClO(2)
 Framework group  C1[X(CH4ClO)]
 Deg. of freedom    15
 Full point group                 C1      NOp   1
 Rotational constants (GHZ):          29.8132626           2.6394611           2.4733615
 Leave Link  202 at Sat Mar 16 11:07:27 2024, MaxMem=   104857600 cpu:               0.0 elap:               0.0
 (Enter /opt/g16/l301.exe)
 Standard basis: STO-3G (5D, 7F)
 Ernie: Thresh=  0.10000D-02 Tol=  0.10000D-05 Strict=F.
    23 basis functions,    69 primitive gaussians,    23 cartesian basis functions
    18 alpha electrons       17 beta electrons
       nuclear repulsion energy        89.5731027240 Hartrees.
 IExCor=    0 DFT=F Ex=HF Corr=None ExCW=0 ScaHFX=  1.000000
 ScaDFX=  1.000000  1.000000  1.000000  1.000000 ScalE2=  1.000000  1.000000
 IRadAn=      5 IRanWt=     -1 IRanGd=            0 ICorTp=0 IEmpDi=  4
 NAtoms=    7 NActive=    7 NUniq=    7 SFac= 1.00D+00 NAtFMM=   60 NAOKFM=F Big=F
 Integral buffers will be    131072 words long.
 Raffenetti 2 integral format.
 Two-electron integral symmetry is turned off.
 Leave Link  301 at Sat Mar 16 11:07:27 2024, MaxMem=   104857600 cpu:               0.0 elap:               0.0
 (Enter /opt/g16/l402.exe)
 External calculation of energy, first and second derivatives.
 Running external command "python3 -u ../pes/h4cclo_pes.py R"
         input file       "/home/jh-li/scratch/g16/Gau-38764.EIn"
         output file      "/home/jh-li/scratch/g16/Gau-38764.EOu"
         message file     "/home/jh-li/scratch/g16/Gau-38764.EMs"
         fchk file        "/home/jh-li/scratch/g16/Gau-38764.EFC"
         mat. el file     "/home/jh-li/scratch/g16/Gau-38764.EUF"
 Recovered energy= -575.297049961     dipole=      0.000000000000      0.000000000000      0.000000000000
 Energy=    -575.297050     NIter=   0.
 Dipole moment=       0.000000       0.000000       0.000000
 Leave Link  402 at Sat Mar 16 11:07:28 2024, MaxMem=   104857600 cpu:               0.0 elap:               0.8
 (Enter /opt/g16/l716.exe)
 Dipole        = 0.00000000D+00 0.00000000D+00 0.00000000D+00
 -------------------------------------------------------------------
 Center     Atomic                   Forces (Hartrees/Bohr)
 Number     Number              X              Y              Z
 -------------------------------------------------------------------
      1        1          -0.000148570    0.000173361    0.000140582
      2        1           0.000086103   -0.000135981   -0.000170614
      3        1          -0.000063221   -0.000006900   -0.000010612
      4        1           0.000100687   -0.000038821    0.000018394
      5        6           0.000000642   -0.000069151   -0.000190216
      6       17          -0.000072574    0.000151010    0.000385625
      7        8           0.000096305   -0.000075998   -0.000172204
 -------------------------------------------------------------------
 Cartesian Forces:  Max     0.000385625 RMS     0.000138957
 Force constants in Cartesian coordinates: 
                1             2             3             4             5 
      1  0.264320D+00
      2 -0.217123D+00  0.232122D+00
      3 -0.135228D+00  0.888674D-01  0.850485D-01
      4  0.199433D-02 -0.141303D-02  0.224900D-03  0.167461D+00
      5 -0.230433D-02 -0.481757D-02  0.325813D-02 -0.116036D+00  0.172288D+00
      6  0.339481D-03  0.436412D-02 -0.101149D-02 -0.843776D-01  0.735148D-01
      7  0.129955D-02 -0.695598D-03  0.139764D-02 -0.171018D-01 -0.676219D-02
      8 -0.225020D-02  0.277266D-02  0.398216D-03  0.184566D-01  0.102768D-01
      9  0.195100D-03 -0.212660D-02 -0.104541D-03  0.137367D-01  0.577660D-02
     10  0.268852D-03 -0.455044D-03 -0.660404D-03  0.596216D-02  0.390200D-02
     11  0.154080D-03  0.966081D-03  0.965116D-03 -0.658547D-02 -0.286817D-02
     12  0.385531D-02 -0.767849D-03 -0.975687D-03 -0.986373D-02 -0.476502D-02
     13  0.644253D-03  0.309461D-01 -0.180178D-01 -0.161516D+00  0.969931D-01
     14 -0.581670D-02 -0.272043D-01  0.190873D-01  0.104259D+00 -0.144293D+00
     15 -0.132040D-02 -0.135970D-01  0.548775D-02  0.807255D-01 -0.679203D-01
     16  0.288453D-04 -0.168250D-04  0.262756D-04 -0.322945D-03 -0.278787D-03
     17 -0.571101D-03  0.317910D-03 -0.924989D-04  0.733750D-03  0.512896D-04
     18 -0.175612D-02  0.106543D-02  0.887764D-03  0.314313D-02 -0.307636D-03
     19 -0.268549D+00  0.188766D+00  0.152253D+00  0.352226D-02  0.244933D-01
     20  0.227904D+00 -0.204153D+00 -0.112478D+00  0.592314D-03 -0.306373D-01
     21  0.133917D+00 -0.778064D-01 -0.893299D-01 -0.358195D-02 -0.956156D-02
                6             7             8             9            10 
      6  0.105999D+00
      7 -0.199983D-02  0.290732D+00
      8  0.566634D-03  0.961079D-01  0.957059D-01
      9  0.231295D-02 -0.180501D-02 -0.668712D-02  0.493679D-01
     10  0.171346D-01 -0.983970D-02 -0.626650D-02 -0.263421D-01  0.635223D-01
     11 -0.177304D-01 -0.226638D-02 -0.710944D-03 -0.112446D-01  0.940823D-02
     12 -0.160062D-01  0.699881D-03 -0.549782D-02 -0.891110D-02  0.636305D-01
     13  0.844092D-01 -0.272297D+00 -0.778505D-01 -0.278773D-02 -0.628983D-01
     14 -0.813114D-01 -0.820195D-01 -0.848573D-01 -0.549551D-02 -0.104732D-01
     15 -0.102747D+00 -0.452978D-04  0.992970D-03 -0.440286D-01 -0.604257D-01
     16 -0.230094D-03  0.394581D-03 -0.416503D-03 -0.129033D-02 -0.697709D-03
     17  0.861853D-03  0.178507D-03  0.673162D-03  0.993810D-03  0.164482D-02
     18  0.267756D-02  0.256485D-03  0.161969D-02  0.375248D-02  0.526390D-02
     19 -0.152682D-01  0.679992D-02 -0.277922D-01  0.182916D-01  0.368161D-02
     20  0.197296D-01 -0.454346D-02 -0.238553D-01  0.187855D-01  0.223494D-02
     21  0.877889D-02  0.149788D-02  0.860751D-02 -0.238629D-02  0.139166D-02
               11            12            13            14            15 
     11  0.539089D-01
     12  0.161743D-01  0.209707D+00
     13 -0.753916D-02 -0.474706D-01  0.576372D+00
     14 -0.491853D-01 -0.425790D-01 -0.219210D-01  0.519083D+00
     15 -0.241635D-01 -0.170662D+00 -0.407887D-01  0.399430D-01  0.451035D+00
     16 -0.617069D-03 -0.366113D-02  0.344410D-03 -0.441280D-03  0.627527D-02
     17  0.971024D-03  0.559140D-02 -0.267684D-02  0.662720D-04 -0.105707D-01
     18  0.281134D-02  0.185033D-01 -0.906015D-02  0.501710D-02 -0.357013D-01
     19  0.744457D-02 -0.719158D-02 -0.806275D-01  0.164104D-01  0.155769D-01
     20 -0.307599D-02  0.318389D-01 -0.179556D-01 -0.213625D+00  0.753254D-01
     21  0.331805D-01 -0.316870D-01  0.337160D-01  0.653416D-01 -0.103364D+00
               16            17            18            19            20 
     16  0.214540D-03
     17  0.152792D-03  0.302990D-03
     18  0.243572D-03  0.346500D-03  0.258976D-02
     19  0.387199D-04  0.537786D-03  0.190843D-02  0.335121D+00
     20  0.161810D-02 -0.238328D-02 -0.105509D-01 -0.209850D+00  0.477734D+00
     21 -0.136625D-02  0.287393D-02  0.729930D-02 -0.165572D+00 -0.226446D-01
               21 
     21  0.210683D+00
 Leave Link  716 at Sat Mar 16 11:07:28 2024, MaxMem=   104857600 cpu:               0.0 elap:               0.0
 (Enter /opt/g16/l123.exe)
 IRC-IRC-IRC-IRC-IRC-IRC-IRC-IRC-IRC-IRC-IRC-IRC-IRC-IRC-IRC-IRC-IRC-IRC
 Pt  3 Step number   1 out of a maximum of  20
 Point Number:   3          Path Number:   1
                    CURRENT STRUCTURE
                Cartesian Coordinates (Ang):                
 ---------------------------------------------------------------------
 Center     Atomic                     Coordinates (Angstroms)
 Number     Number                        X           Y           Z
 ---------------------------------------------------------------------
      1          1                    0.607065   -1.129882    1.744021
      2          1                   -0.696130    1.370334    1.860066
      3          1                    1.004596    1.100881    1.371606
      4          1                   -0.330059    0.550347    0.330631
      5          6                   -0.000408    0.676094    1.393519
      6         17                    0.015290   -0.038959   -1.585351
      7          8                   -0.070088   -0.541456    2.086278
 ---------------------------------------------------------------------
   CHANGE IN THE REACTION COORDINATE =    0.12420
   NET REACTION COORDINATE UP TO THIS POINT =    0.37280
  # OF POINTS ALONG THE PATH =   3
  # OF STEPS =   1

 Calculating another point on the path.
 Point Number  4 in FORWARD path direction.
 Using LQA Reaction Path Following.
   LQA: T_Est iteration completed in    4 iterations.
 IRC-IRC-IRC-IRC-IRC-IRC-IRC-IRC-IRC-IRC-IRC-IRC-IRC-IRC-IRC-IRC-IRC-IRC
 Leave Link  123 at Sat Mar 16 11:07:28 2024, MaxMem=   104857600 cpu:               0.0 elap:               0.0
 (Enter /opt/g16/l202.exe)
                          Input orientation:                          
 ---------------------------------------------------------------------
 Center     Atomic      Atomic             Coordinates (Angstroms)
 Number     Number       Type             X           Y           Z
 ---------------------------------------------------------------------
      1          1           0        0.617558   -1.125578    1.761611
      2          1           0       -0.708594    1.364313    1.831547
      3          1           0        1.004308    1.102975    1.375645
      4          1           0       -0.306456    0.533980    0.314610
      5          6           0        0.001937    0.671565    1.385686
      6         17           0        0.014560   -0.037462   -1.581433
      7          8           0       -0.071606   -0.540369    2.085051
 ---------------------------------------------------------------------
                    Distance matrix (angstroms):
                    1          2          3          4          5
     1  H    0.000000
     2  H    2.821902   0.000000
     3  H    2.294558   1.791696   0.000000
     4  H    2.387834   1.775463   1.779791   0.000000
     5  C    1.936500   1.087910   1.091312   1.123049   0.000000
     6  Cl   3.567009   3.759835   3.320318   2.006135   3.050684
     7  O    0.960224   2.024311   2.088403   2.084189   1.401180
                    6          7
     6  Cl   0.000000
     7  O    3.701817   0.000000
 Symmetry turned off by external request.
 Stoichiometry    CH4ClO(2)
 Framework group  C1[X(CH4ClO)]
 Deg. of freedom    15
 Full point group                 C1      NOp   1
 Rotational constants (GHZ):          30.0322531           2.6504620           2.4850124
 Leave Link  202 at Sat Mar 16 11:07:28 2024, MaxMem=   104857600 cpu:               0.0 elap:               0.0
 (Enter /opt/g16/l301.exe)
 Standard basis: STO-3G (5D, 7F)
 Ernie: Thresh=  0.10000D-02 Tol=  0.10000D-05 Strict=F.
    23 basis functions,    69 primitive gaussians,    23 cartesian basis functions
    18 alpha electrons       17 beta electrons
       nuclear repulsion energy        89.7541698812 Hartrees.
 IExCor=    0 DFT=F Ex=HF Corr=None ExCW=0 ScaHFX=  1.000000
 ScaDFX=  1.000000  1.000000  1.000000  1.000000 ScalE2=  1.000000  1.000000
 IRadAn=      5 IRanWt=     -1 IRanGd=            0 ICorTp=0 IEmpDi=  4
 NAtoms=    7 NActive=    7 NUniq=    7 SFac= 1.00D+00 NAtFMM=   60 NAOKFM=F Big=F
 Integral buffers will be    131072 words long.
 Raffenetti 2 integral format.
 Two-electron integral symmetry is turned off.
 Leave Link  301 at Sat Mar 16 11:07:28 2024, MaxMem=   104857600 cpu:               0.1 elap:               0.0
 (Enter /opt/g16/l402.exe)
 External calculation of energy, first and second derivatives.
 Running external command "python3 -u ../pes/h4cclo_pes.py R"
         input file       "/home/jh-li/scratch/g16/Gau-38764.EIn"
         output file      "/home/jh-li/scratch/g16/Gau-38764.EOu"
         message file     "/home/jh-li/scratch/g16/Gau-38764.EMs"
         fchk file        "/home/jh-li/scratch/g16/Gau-38764.EFC"
         mat. el file     "/home/jh-li/scratch/g16/Gau-38764.EUF"
 Recovered energy= -575.297076889     dipole=      0.000000000000      0.000000000000      0.000000000000
 Energy=    -575.297077     NIter=   0.
 Dipole moment=       0.000000       0.000000       0.000000
 Leave Link  402 at Sat Mar 16 11:07:29 2024, MaxMem=   104857600 cpu:               0.1 elap:               0.8
 (Enter /opt/g16/l716.exe)
 Dipole        = 0.00000000D+00 0.00000000D+00 0.00000000D+00
 -------------------------------------------------------------------
 Center     Atomic                   Forces (Hartrees/Bohr)
 Number     Number              X              Y              Z
 -------------------------------------------------------------------
      1        1          -0.000134892    0.000175245    0.000154368
      2        1           0.000072930   -0.000143210   -0.000201471
      3        1          -0.000059650   -0.000003771   -0.000008891
      4        1           0.000123326   -0.000058336   -0.000013805
      5        6           0.000031489   -0.000134851   -0.000300444
      6       17          -0.000106058    0.000212229    0.000571658
      7        8           0.000072429   -0.000049739   -0.000200935
 -------------------------------------------------------------------
 Cartesian Forces:  Max     0.000571658 RMS     0.000182865
 Force constants in Cartesian coordinates: 
                1             2             3             4             5 
      1  0.273855D+00
      2 -0.219785D+00  0.229917D+00
      3 -0.130356D+00  0.820397D-01  0.782633D-01
      4  0.198995D-02 -0.142851D-02  0.351298D-03  0.172813D+00
      5 -0.229237D-02 -0.479413D-02  0.324557D-02 -0.118422D+00  0.172012D+00
      6  0.458736D-03  0.435167D-02 -0.103831D-02 -0.826473D-01  0.698060D-01
      7  0.128250D-02 -0.576904D-03  0.139921D-02 -0.173151D-01 -0.708678D-02
      8 -0.226259D-02  0.280254D-02  0.323473D-03  0.183476D-01  0.104618D-01
      9  0.280983D-03 -0.221542D-02 -0.113072D-03  0.130782D-01  0.566429D-02
     10  0.261047D-03 -0.467365D-03 -0.649859D-03  0.565230D-02  0.419215D-02
     11  0.251300D-03  0.902494D-03  0.902114D-03 -0.611372D-02 -0.305681D-02
     12  0.419541D-02 -0.892040D-03 -0.106349D-02 -0.961512D-02 -0.487482D-02
     13  0.894148D-03  0.313042D-01 -0.186007D-01 -0.166610D+00  0.990190D-01
     14 -0.588808D-02 -0.271220D-01  0.191626D-01  0.106447D+00 -0.144238D+00
     15 -0.159802D-02 -0.124322D-01  0.524141D-02  0.792689D-01 -0.648256D-01
     16  0.226161D-04 -0.818476D-05  0.263801D-04 -0.291899D-03 -0.294943D-03
     17 -0.629354D-03  0.310069D-03 -0.982219D-04  0.720024D-03  0.752102D-04
     18 -0.193683D-02  0.109058D-02  0.892522D-03  0.323453D-02 -0.250399D-03
     19 -0.278299D+00  0.190971D+00  0.147826D+00  0.375995D-02  0.248925D-01
     20  0.230599D+00 -0.202013D+00 -0.105570D+00  0.455954D-03 -0.304611D-01
     21  0.128958D+00 -0.719434D-01 -0.821803D-01 -0.366390D-02 -0.876962D-02
                6             7             8             9            10 
      6  0.100964D+00
      7 -0.222601D-02  0.289500D+00
      8  0.755169D-03  0.975464D-01  0.970186D-01
      9  0.250988D-02  0.109814D-02 -0.571945D-02  0.491487D-01
     10  0.173316D-01 -0.936759D-02 -0.651485D-02 -0.260351D-01  0.600337D-01
     11 -0.177043D-01 -0.215011D-02 -0.878020D-03 -0.115353D-01  0.932369D-02
     12 -0.157857D-01  0.919497D-03 -0.590661D-02 -0.997629D-02  0.584069D-01
     13  0.830810D-01 -0.271234D+00 -0.790525D-01 -0.568909D-02 -0.594959D-01
     14 -0.780784D-01 -0.831172D-01 -0.862292D-01 -0.649227D-02 -0.999221D-02
     15 -0.977570D-01 -0.294802D-02  0.400575D-03 -0.433582D-01 -0.558270D-01
     16 -0.232892D-03  0.470872D-03 -0.400026D-03 -0.129556D-02 -0.730465D-03
     17  0.906850D-03  0.140874D-03  0.703850D-03  0.106750D-02  0.159595D-02
     18  0.285986D-02  0.860489D-04  0.179669D-02  0.407162D-02  0.521338D-02
     19 -0.157576D-01  0.665069D-02 -0.276757D-01  0.185604D-01  0.364607D-02
     20  0.199583D-01 -0.475755D-02 -0.238745D-01  0.192328D-01  0.185796D-02
     21  0.825157D-02  0.167271D-02  0.835026D-02 -0.227987D-02  0.155305D-02
               11            12            13            14            15 
     11  0.538300D-01
     12  0.166792D-01  0.201523D+00
     13 -0.730644D-02 -0.429297D-01  0.578249D+00
     14 -0.494190D-01 -0.437288D-01 -0.233663D-01  0.520937D+00
     15 -0.244624D-01 -0.162131D+00 -0.409829D-01  0.371863D-01  0.440160D+00
     16 -0.673061D-03 -0.385705D-02  0.183953D-03 -0.398770D-03  0.644435D-02
     17  0.994443D-03  0.607391D-02 -0.256615D-02 -0.101812D-03 -0.113346D-01
     18  0.330726D-02  0.204741D-01 -0.885463D-02  0.468404D-02 -0.390351D-01
     19  0.666716D-02 -0.712114D-02 -0.819658D-01  0.163119D-01  0.156406D-01
     20 -0.236739D-02  0.326441D-01 -0.180357D-01 -0.213843D+00  0.754779D-01
     21  0.328058D-01 -0.330729D-01  0.339758D-01  0.672688D-01 -0.103098D+00
               16            17            18            19            20 
     16  0.279373D-03
     17  0.166431D-03  0.400359D-03
     18  0.278183D-03  0.401757D-03  0.283606D-02
     19  0.659291D-04  0.571902D-03  0.197845D-02  0.346128D+00
     20  0.160899D-02 -0.238287D-02 -0.110286D-01 -0.211728D+00  0.474945D+00
     21 -0.136614D-02  0.298741D-02  0.791053D-02 -0.161128D+00 -0.307079D-01
               21 
     21  0.204462D+00
 Leave Link  716 at Sat Mar 16 11:07:29 2024, MaxMem=   104857600 cpu:               0.0 elap:               0.0
 (Enter /opt/g16/l123.exe)
 IRC-IRC-IRC-IRC-IRC-IRC-IRC-IRC-IRC-IRC-IRC-IRC-IRC-IRC-IRC-IRC-IRC-IRC
 Pt  4 Step number   1 out of a maximum of  20
 Point Number:   4          Path Number:   1
                    CURRENT STRUCTURE
                Cartesian Coordinates (Ang):                
 ---------------------------------------------------------------------
 Center     Atomic                     Coordinates (Angstroms)
 Number     Number                        X           Y           Z
 ---------------------------------------------------------------------
      1          1                    0.617558   -1.125578    1.761611
      2          1                   -0.708594    1.364313    1.831547
      3          1                    1.004308    1.102975    1.375645
      4          1                   -0.306456    0.533980    0.314610
      5          6                    0.001937    0.671565    1.385686
      6         17                    0.014560   -0.037462   -1.581433
      7          8                   -0.071606   -0.540369    2.085051
 ---------------------------------------------------------------------
   CHANGE IN THE REACTION COORDINATE =    0.12431
   NET REACTION COORDINATE UP TO THIS POINT =    0.49711
  # OF POINTS ALONG THE PATH =   4
  # OF STEPS =   1

 Calculating another point on the path.
 Point Number  5 in FORWARD path direction.
 Using LQA Reaction Path Following.
   LQA: T_Est iteration completed in    4 iterations.
 IRC-IRC-IRC-IRC-IRC-IRC-IRC-IRC-IRC-IRC-IRC-IRC-IRC-IRC-IRC-IRC-IRC-IRC
 Leave Link  123 at Sat Mar 16 11:07:29 2024, MaxMem=   104857600 cpu:               0.0 elap:               0.0
 (Enter /opt/g16/l202.exe)
                          Input orientation:                          
 ---------------------------------------------------------------------
 Center     Atomic      Atomic             Coordinates (Angstroms)
 Number     Number       Type             X           Y           Z
 ---------------------------------------------------------------------
      1          1           0        0.627740   -1.120879    1.778933
      2          1           0       -0.720547    1.358013    1.802924
      3          1           0        1.003770    1.105073    1.378895
      4          1           0       -0.283090    0.517721    0.298765
      5          6           0        0.004207    0.667052    1.377822
      6         17           0        0.013817   -0.035987   -1.577366
      7          8           0       -0.073019   -0.539247    2.083571
 ---------------------------------------------------------------------
                    Distance matrix (angstroms):
                    1          2          3          4          5
     1  H    0.000000
     2  H    2.821943   0.000000
     3  H    2.292659   1.793614   0.000000
     4  H    2.388623   1.777626   1.779795   0.000000
     5  C    1.935556   1.087846   1.091325   1.126590   0.000000
     6  Cl   3.580312   3.729462   3.319865   1.978538   3.037679
     7  O    0.960293   2.024266   2.088020   2.084909   1.399715
                    6          7
     6  Cl   0.000000
     7  O    3.696386   0.000000
 Symmetry turned off by external request.
 Stoichiometry    CH4ClO(2)
 Framework group  C1[X(CH4ClO)]
 Deg. of freedom    15
 Full point group                 C1      NOp   1
 Rotational constants (GHZ):          30.2562181           2.6620017           2.4971782
 Leave Link  202 at Sat Mar 16 11:07:29 2024, MaxMem=   104857600 cpu:               0.0 elap:               0.0
 (Enter /opt/g16/l301.exe)
 Standard basis: STO-3G (5D, 7F)
 Ernie: Thresh=  0.10000D-02 Tol=  0.10000D-05 Strict=F.
    23 basis functions,    69 primitive gaussians,    23 cartesian basis functions
    18 alpha electrons       17 beta electrons
       nuclear repulsion energy        89.9413773409 Hartrees.
 IExCor=    0 DFT=F Ex=HF Corr=None ExCW=0 ScaHFX=  1.000000
 ScaDFX=  1.000000  1.000000  1.000000  1.000000 ScalE2=  1.000000  1.000000
 IRadAn=      5 IRanWt=     -1 IRanGd=            0 ICorTp=0 IEmpDi=  4
 NAtoms=    7 NActive=    7 NUniq=    7 SFac= 1.00D+00 NAtFMM=   60 NAOKFM=F Big=F
 Integral buffers will be    131072 words long.
 Raffenetti 2 integral format.
 Two-electron integral symmetry is turned off.
 Leave Link  301 at Sat Mar 16 11:07:29 2024, MaxMem=   104857600 cpu:               0.1 elap:               0.1
 (Enter /opt/g16/l402.exe)
 External calculation of energy, first and second derivatives.
 Running external command "python3 -u ../pes/h4cclo_pes.py R"
         input file       "/home/jh-li/scratch/g16/Gau-38764.EIn"
         output file      "/home/jh-li/scratch/g16/Gau-38764.EOu"
         message file     "/home/jh-li/scratch/g16/Gau-38764.EMs"
         fchk file        "/home/jh-li/scratch/g16/Gau-38764.EFC"
         mat. el file     "/home/jh-li/scratch/g16/Gau-38764.EUF"
 Recovered energy= -575.297114456     dipole=      0.000000000000      0.000000000000      0.000000000000
 Energy=    -575.297114     NIter=   0.
 Dipole moment=       0.000000       0.000000       0.000000
 Leave Link  402 at Sat Mar 16 11:07:30 2024, MaxMem=   104857600 cpu:               0.0 elap:               0.8
 (Enter /opt/g16/l716.exe)
 Dipole        = 0.00000000D+00 0.00000000D+00 0.00000000D+00
 -------------------------------------------------------------------
 Center     Atomic                   Forces (Hartrees/Bohr)
 Number     Number              X              Y              Z
 -------------------------------------------------------------------
      1        1          -0.000122254    0.000179757    0.000170862
      2        1           0.000058397   -0.000150593   -0.000235854
      3        1          -0.000055874   -0.000000419   -0.000008433
      4        1           0.000147773   -0.000080235   -0.000049766
      5        6           0.000064951   -0.000208478   -0.000424337
      6       17          -0.000142045    0.000279440    0.000792012
      7        8           0.000048825   -0.000021853   -0.000244555
 -------------------------------------------------------------------
 Cartesian Forces:  Max     0.000792012 RMS     0.000239848
 Force constants in Cartesian coordinates: 
                1             2             3             4             5 
      1  0.283231D+00
      2 -0.222130D+00  0.227488D+00
      3 -0.125152D+00  0.752208D-01  0.718834D-01
      4  0.197616D-02 -0.144045D-02  0.482731D-03  0.178100D+00
      5 -0.227746D-02 -0.477067D-02  0.323632D-02 -0.120676D+00  0.171654D+00
      6  0.578035D-03  0.434032D-02 -0.105352D-02 -0.806863D-01  0.660541D-01
      7  0.126233D-02 -0.447506D-03  0.139527D-02 -0.174943D-01 -0.741262D-02
      8 -0.227842D-02  0.284244D-02  0.249561D-03  0.182315D-01  0.106415D-01
      9  0.364992D-03 -0.230436D-02 -0.118393D-03  0.124226D-01  0.554152D-02
     10  0.255088D-03 -0.478504D-03 -0.641621D-03  0.532238D-02  0.447582D-02
     11  0.352941D-03  0.838718D-03  0.847008D-03 -0.563733D-02 -0.323340D-02
     12  0.454096D-02 -0.101668D-02 -0.112330D-02 -0.938512D-02 -0.497314D-02
     13  0.115988D-02  0.316304D-01 -0.191797D-01 -0.171656D+00  0.100935D+00
     14 -0.595132D-02 -0.270409D-01  0.192423D-01  0.108521D+00 -0.144113D+00
     15 -0.187871D-02 -0.112515D-01  0.495191D-02  0.775909D-01 -0.616914D-01
     16  0.114688D-04  0.193210D-05  0.303500D-04 -0.255201D-03 -0.311483D-03
     17 -0.684733D-03  0.298029D-03 -0.110965D-03  0.697918D-03  0.992138D-04
     18 -0.212083D-02  0.110808D-02  0.884025D-03  0.331124D-02 -0.188998D-03
     19 -0.287889D+00  0.192873D+00  0.143062D+00  0.400469D-02  0.252748D-01
     20  0.232961D+00 -0.199652D+00 -0.986798D-01  0.310360D-03 -0.302785D-01
     21  0.123670D+00 -0.660979D-01 -0.754223D-01 -0.372958D-02 -0.798250D-02
                6             7             8             9            10 
      6  0.960901D-01
      7 -0.244683D-02  0.288193D+00
      8  0.929088D-03  0.989594D-01  0.983474D-01
      9  0.268388D-02  0.380578D-02 -0.479764D-02  0.489684D-01
     10  0.174795D-01 -0.890958D-02 -0.674787D-02 -0.256764D-01  0.568099D-01
     11 -0.176426D-01 -0.203575D-02 -0.104377D-02 -0.118093D-01  0.912393D-02
     12 -0.155728D-01  0.117720D-02 -0.631799D-02 -0.110226D-01  0.532143D-01
     13  0.815504D-01 -0.270112D+00 -0.802473D-01 -0.844861D-02 -0.563023D-01
     14 -0.748105D-01 -0.841840D-01 -0.875995D-01 -0.744206D-02 -0.940777D-02
     15 -0.928922D-01 -0.567390D-02 -0.154948D-03 -0.427212D-01 -0.512210D-01
     16 -0.234199D-03  0.544970D-03 -0.377588D-03 -0.129090D-02 -0.782253D-03
     17  0.950960D-03  0.102560D-03  0.730070D-03  0.113679D-02  0.153683D-02
     18  0.304609D-02 -0.988423D-04  0.197226D-02  0.438809D-02  0.512701D-02
     19 -0.162329D-01  0.650265D-02 -0.275517D-01  0.188204D-01  0.360583D-02
     20  0.201739D-01 -0.498378D-02 -0.239130D-01  0.196771D-01  0.149300D-02
     21  0.770263D-02  0.184274D-02  0.811980D-02 -0.217549D-02  0.171203D-02
               11            12            13            14            15 
     11  0.537298D-01
     12  0.169032D-01  0.192191D+00
     13 -0.698621D-02 -0.384889D-01  0.580233D+00
     14 -0.495862D-01 -0.445417D-01 -0.248322D-01  0.522759D+00
     15 -0.245170D-01 -0.152570D+00 -0.410391D-01  0.340192D-01  0.428636D+00
     16 -0.721883D-03 -0.402063D-02  0.239727D-04 -0.351354D-03  0.656041D-02
     17  0.994109D-03  0.655439D-02 -0.243380D-02 -0.283185D-03 -0.121029D-01
     18  0.383266D-02  0.225207D-01 -0.857090D-02  0.427174D-02 -0.425386D-01
     19  0.590314D-02 -0.703880D-02 -0.833241D-01  0.162025D-01  0.156596D-01
     20 -0.169342D-02  0.333867D-01 -0.180697D-01 -0.214152D+00  0.757084D-01
     21  0.323777D-01 -0.344576D-01  0.341761D-01  0.692623D-01 -0.102844D+00
               16            17            18            19            20 
     16  0.361217D-03
     17  0.178129D-03  0.520505D-03
     18  0.306969D-03  0.482913D-03  0.317040D-02
     19  0.961302D-04  0.602749D-03  0.204438D-02  0.356990D+00
     20  0.158270D-02 -0.235963D-02 -0.114775D-01 -0.213294D+00  0.472053D+00
     21 -0.135471D-02  0.309367D-02  0.853948D-02 -0.156315D+00 -0.387815D-01
               21 
     21  0.198650D+00
 Leave Link  716 at Sat Mar 16 11:07:30 2024, MaxMem=   104857600 cpu:               0.0 elap:               0.0
 (Enter /opt/g16/l123.exe)
 IRC-IRC-IRC-IRC-IRC-IRC-IRC-IRC-IRC-IRC-IRC-IRC-IRC-IRC-IRC-IRC-IRC-IRC
 Pt  5 Step number   1 out of a maximum of  20
 Point Number:   5          Path Number:   1
                    CURRENT STRUCTURE
                Cartesian Coordinates (Ang):                
 ---------------------------------------------------------------------
 Center     Atomic                     Coordinates (Angstroms)
 Number     Number                        X           Y           Z
 ---------------------------------------------------------------------
      1          1                    0.627740   -1.120879    1.778933
      2          1                   -0.720547    1.358013    1.802924
      3          1                    1.003770    1.105073    1.378895
      4          1                   -0.283090    0.517721    0.298765
      5          6                    0.004207    0.667052    1.377822
      6         17                    0.013817   -0.035987   -1.577366
      7          8                   -0.073019   -0.539247    2.083571
 ---------------------------------------------------------------------
   CHANGE IN THE REACTION COORDINATE =    0.12439
   NET REACTION COORDINATE UP TO THIS POINT =    0.62151
  # OF POINTS ALONG THE PATH =   5
  # OF STEPS =   1

 Calculating another point on the path.
 Point Number  6 in FORWARD path direction.
 Using LQA Reaction Path Following.
   LQA: T_Est iteration completed in    4 iterations.
 IRC-IRC-IRC-IRC-IRC-IRC-IRC-IRC-IRC-IRC-IRC-IRC-IRC-IRC-IRC-IRC-IRC-IRC
 Leave Link  123 at Sat Mar 16 11:07:30 2024, MaxMem=   104857600 cpu:               0.0 elap:               0.0
 (Enter /opt/g16/l202.exe)
                          Input orientation:                          
 ---------------------------------------------------------------------
 Center     Atomic      Atomic             Coordinates (Angstroms)
 Number     Number       Type             X           Y           Z
 ---------------------------------------------------------------------
      1          1           0        0.637573   -1.115816    1.795966
      2          1           0       -0.731919    1.351485    1.774269
      3          1           0        1.003046    1.107080    1.381262
      4          1           0       -0.260091    0.501610    0.283036
      5          6           0        0.006401    0.662548    1.369924
      6         17           0        0.013075   -0.034530   -1.573140
      7          8           0       -0.074352   -0.538097    2.081830
 ---------------------------------------------------------------------
                    Distance matrix (angstroms):
                    1          2          3          4          5
     1  H    0.000000
     2  H    2.821977   0.000000
     3  H    2.290593   1.795631   0.000000
     4  H    2.389733   1.780080   1.779946   0.000000
     5  C    1.934546   1.087772   1.091347   1.130594   0.000000
     6  Cl   3.593056   3.698811   3.318404   1.951270   3.024497
     7  O    0.960372   2.024230   2.087627   2.085940   1.398169
                    6          7
     6  Cl   0.000000
     7  O    3.690532   0.000000
 Symmetry turned off by external request.
 Stoichiometry    CH4ClO(2)
 Framework group  C1[X(CH4ClO)]
 Deg. of freedom    15
 Full point group                 C1      NOp   1
 Rotational constants (GHZ):          30.4852304           2.6741171           2.5098926
 Leave Link  202 at Sat Mar 16 11:07:30 2024, MaxMem=   104857600 cpu:               0.0 elap:               0.0
 (Enter /opt/g16/l301.exe)
 Standard basis: STO-3G (5D, 7F)
 Ernie: Thresh=  0.10000D-02 Tol=  0.10000D-05 Strict=F.
    23 basis functions,    69 primitive gaussians,    23 cartesian basis functions
    18 alpha electrons       17 beta electrons
       nuclear repulsion energy        90.1349818170 Hartrees.
 IExCor=    0 DFT=F Ex=HF Corr=None ExCW=0 ScaHFX=  1.000000
 ScaDFX=  1.000000  1.000000  1.000000  1.000000 ScalE2=  1.000000  1.000000
 IRadAn=      5 IRanWt=     -1 IRanGd=            0 ICorTp=0 IEmpDi=  4
 NAtoms=    7 NActive=    7 NUniq=    7 SFac= 1.00D+00 NAtFMM=   60 NAOKFM=F Big=F
 Integral buffers will be    131072 words long.
 Raffenetti 2 integral format.
 Two-electron integral symmetry is turned off.
 Leave Link  301 at Sat Mar 16 11:07:30 2024, MaxMem=   104857600 cpu:               0.0 elap:               0.0
 (Enter /opt/g16/l402.exe)
 External calculation of energy, first and second derivatives.
 Running external command "python3 -u ../pes/h4cclo_pes.py R"
         input file       "/home/jh-li/scratch/g16/Gau-38764.EIn"
         output file      "/home/jh-li/scratch/g16/Gau-38764.EOu"
         message file     "/home/jh-li/scratch/g16/Gau-38764.EMs"
         fchk file        "/home/jh-li/scratch/g16/Gau-38764.EFC"
         mat. el file     "/home/jh-li/scratch/g16/Gau-38764.EUF"
 Recovered energy= -575.297163812     dipole=      0.000000000000      0.000000000000      0.000000000000
 Energy=    -575.297164     NIter=   0.
 Dipole moment=       0.000000       0.000000       0.000000
 Leave Link  402 at Sat Mar 16 11:07:31 2024, MaxMem=   104857600 cpu:               0.0 elap:               0.8
 (Enter /opt/g16/l716.exe)
 Dipole        = 0.00000000D+00 0.00000000D+00 0.00000000D+00
 -------------------------------------------------------------------
 Center     Atomic                   Forces (Hartrees/Bohr)
 Number     Number              X              Y              Z
 -------------------------------------------------------------------
      1        1          -0.000109104    0.000185687    0.000189056
      2        1           0.000043222   -0.000158364   -0.000273450
      3        1          -0.000051892    0.000002767   -0.000010217
      4        1           0.000173172   -0.000104234   -0.000089651
      5        6           0.000099977   -0.000289536   -0.000561623
      6       17          -0.000179605    0.000352274    0.001049415
      7        8           0.000024201    0.000009085   -0.000304228
 -------------------------------------------------------------------
 Cartesian Forces:  Max     0.001049415 RMS     0.000308270
 Force constants in Cartesian coordinates: 
                1             2             3             4             5 
      1  0.292425D+00
      2 -0.224160D+00  0.224855D+00
      3 -0.119636D+00  0.684324D-01  0.659123D-01
      4  0.195270D-02 -0.144881D-02  0.618945D-03  0.183286D+00
      5 -0.226055D-02 -0.474724D-02  0.322990D-02 -0.122791D+00  0.171229D+00
      6  0.696508D-03  0.433040D-02 -0.105638D-02 -0.785071D-01  0.622786D-01
      7  0.123869D-02 -0.307766D-03  0.138541D-02 -0.176378D-01 -0.773699D-02
      8 -0.229926D-02  0.289361D-02  0.175912D-03  0.181121D-01  0.108140D-01
      9  0.446456D-03 -0.239377D-02 -0.120617D-03  0.117740D-01  0.540831D-02
     10  0.252021D-03 -0.488964D-03 -0.635978D-03  0.497488D-02  0.475044D-02
     11  0.457012D-03  0.775199D-03  0.801274D-03 -0.515865D-02 -0.339739D-02
     12  0.488481D-02 -0.113950D-02 -0.115175D-02 -0.917078D-02 -0.506133D-02
     13  0.144226D-02  0.319255D-01 -0.197530D-01 -0.176622D+00  0.102737D+00
     14 -0.600745D-02 -0.269618D-01  0.193270D-01  0.110474D+00 -0.143931D+00
     15 -0.215900D-02 -0.100561D-01  0.461640D-02  0.756995D-01 -0.585336D-01
     16 -0.538729D-05  0.137234D-04  0.381129D-04 -0.212793D-03 -0.328582D-03
     17 -0.735393D-03  0.281153D-03 -0.131119D-03  0.666668D-03  0.123173D-03
     18 -0.230334D-02  0.111566D-02  0.859810D-03  0.337038D-02 -0.123442D-03
     19 -0.297299D+00  0.194476D+00  0.137979D+00  0.425604D-02  0.256390D-01
     20  0.234998D+00 -0.197093D+00 -0.918303D-01  0.153512D-03 -0.300912D-01
     21  0.118073D+00 -0.602906D-01 -0.690582D-01 -0.377867D-02 -0.720200D-02
                6             7             8             9            10 
      6  0.913943D-01
      7 -0.265926D-02  0.286846D+00
      8  0.108732D-02  0.100332D+00  0.996738D-01
      9  0.283476D-02  0.629604D-02 -0.393622D-02  0.488115D-01
     10  0.175730D-01 -0.846804D-02 -0.696271D-02 -0.252668D-01  0.538652D-01
     11 -0.175445D-01 -0.192542D-02 -0.120657D-02 -0.120603D-01  0.881708D-02
     12 -0.153717D-01  0.146557D-02 -0.672660D-02 -0.120393D-01  0.480987D-01
     13  0.798304D-01 -0.268964D+00 -0.814237D-01 -0.110486D-01 -0.533270D-01
     14 -0.715269D-01 -0.852092D-01 -0.889512D-01 -0.833148D-02 -0.873512D-02
     15 -0.881659D-01 -0.819851D-02 -0.663462D-03 -0.421063D-01 -0.466481D-01
     16 -0.233854D-03  0.615843D-03 -0.349147D-03 -0.127615D-02 -0.858613D-03
     17  0.993667D-03  0.651285D-04  0.751120D-03  0.120048D-02  0.146913D-02
     18  0.323450D-02 -0.294590D-03  0.214387D-02  0.469732D-02  0.500781D-02
     19 -0.166920D-01  0.635706D-02 -0.274218D-01  0.190728D-01  0.356047D-02
     20  0.203767D-01 -0.522037D-02 -0.239696D-01  0.201151D-01  0.114572D-02
     21  0.713460D-02  0.200652D-02  0.791937D-02 -0.207465D-02  0.186580D-02
               11            12            13            14            15 
     11  0.535987D-01
     12  0.168234D-01  0.181702D+00
     13 -0.658809D-02 -0.341945D-01  0.582328D+00
     14 -0.496666D-01 -0.449732D-01 -0.263039D-01  0.524530D+00
     15 -0.243048D-01 -0.141965D+00 -0.409465D-01  0.304035D-01  0.416451D+00
     16 -0.761172D-03 -0.414424D-02 -0.130882D-03 -0.300176D-03  0.661691D-02
     17  0.963534D-03  0.702317D-02 -0.228223D-02 -0.476941D-03 -0.128683D-01
     18  0.437977D-02  0.246146D-01 -0.821152D-02  0.377262D-02 -0.461966D-01
     19  0.515809D-02 -0.694041D-02 -0.847031D-01  0.160781D-01  0.156343D-01
     20 -0.106090D-02  0.340490D-01 -0.180686D-01 -0.214558D+00  0.760324D-01
     21  0.318965D-01 -0.358245D-01  0.343226D-01  0.713286D-01 -0.102610D+00
               16            17            18            19            20 
     16  0.462484D-03
     17  0.187263D-03  0.667306D-03
     18  0.327355D-03  0.597611D-03  0.362183D-02
     19  0.129567D-03  0.629060D-03  0.210283D-02  0.367685D+00
     20  0.153856D-02 -0.231038D-02 -0.118851D-01 -0.214547D+00  0.469086D+00
     21 -0.133077D-02  0.318961D-02  0.917932D-02 -0.151158D+00 -0.468494D-01
               21 
     21  0.193247D+00
 Leave Link  716 at Sat Mar 16 11:07:31 2024, MaxMem=   104857600 cpu:               0.0 elap:               0.0
 (Enter /opt/g16/l123.exe)
 IRC-IRC-IRC-IRC-IRC-IRC-IRC-IRC-IRC-IRC-IRC-IRC-IRC-IRC-IRC-IRC-IRC-IRC
 Pt  6 Step number   1 out of a maximum of  20
 Point Number:   6          Path Number:   1
                    CURRENT STRUCTURE
                Cartesian Coordinates (Ang):                
 ---------------------------------------------------------------------
 Center     Atomic                     Coordinates (Angstroms)
 Number     Number                        X           Y           Z
 ---------------------------------------------------------------------
      1          1                    0.637573   -1.115816    1.795966
      2          1                   -0.731919    1.351485    1.774269
      3          1                    1.003046    1.107080    1.381262
      4          1                   -0.260091    0.501610    0.283036
      5          6                    0.006401    0.662548    1.369924
      6         17                    0.013075   -0.034530   -1.573140
      7          8                   -0.074352   -0.538097    2.081830
 ---------------------------------------------------------------------
   CHANGE IN THE REACTION COORDINATE =    0.12445
   NET REACTION COORDINATE UP TO THIS POINT =    0.74595
  # OF POINTS ALONG THE PATH =   6
  # OF STEPS =   1

 Calculating another point on the path.
 Point Number  7 in FORWARD path direction.
 Using LQA Reaction Path Following.
   LQA: T_Est iteration completed in    4 iterations.
 IRC-IRC-IRC-IRC-IRC-IRC-IRC-IRC-IRC-IRC-IRC-IRC-IRC-IRC-IRC-IRC-IRC-IRC
 Leave Link  123 at Sat Mar 16 11:07:31 2024, MaxMem=   104857600 cpu:               0.0 elap:               0.0
 (Enter /opt/g16/l202.exe)
                          Input orientation:                          
 ---------------------------------------------------------------------
 Center     Atomic      Atomic             Coordinates (Angstroms)
 Number     Number       Type             X           Y           Z
 ---------------------------------------------------------------------
      1          1           0        0.647049   -1.110409    1.812701
      2          1           0       -0.742653    1.344780    1.745665
      3          1           0        1.002194    1.108911    1.382638
      4          1           0       -0.237616    0.485678    0.267346
      5          6           0        0.008515    0.658049    1.361984
      6         17           0        0.012342   -0.033088   -1.568744
      7          8           0       -0.075617   -0.536922    2.079820
 ---------------------------------------------------------------------
                    Distance matrix (angstroms):
                    1          2          3          4          5
     1  H    0.000000
     2  H    2.822006   0.000000
     3  H    2.288332   1.797752   0.000000
[...]
     21 -0.104108D-03  0.149115D-03 -0.234840D-02 -0.636226D-01  0.122330D+00
               21 
     21  0.565376D+00
 Leave Link  716 at Sat Mar 16 11:08:50 2024, MaxMem=   104857600 cpu:               0.0 elap:               0.0
 (Enter /opt/g16/l123.exe)
 IRC-IRC-IRC-IRC-IRC-IRC-IRC-IRC-IRC-IRC-IRC-IRC-IRC-IRC-IRC-IRC-IRC-IRC
 Pt 92 Step number   1 out of a maximum of  20
 Point Number:  47          Path Number:   2
                    CURRENT STRUCTURE
                Cartesian Coordinates (Ang):                
 ---------------------------------------------------------------------
 Center     Atomic                     Coordinates (Angstroms)
 Number     Number                        X           Y           Z
 ---------------------------------------------------------------------
      1          1                    0.072292   -0.779082    0.858372
      2          1                   -0.181268    1.141249    2.903876
      3          1                    0.883898    1.313106    1.497789
      4          1                   -0.881580    1.307338    1.285321
      5          6                   -0.053243    0.877230    1.856567
      6         17                    0.038832   -0.141282   -1.642156
      7          8                   -0.039912   -0.540361    1.782641
 ---------------------------------------------------------------------
   CHANGE IN THE REACTION COORDINATE =    0.12450
   NET REACTION COORDINATE UP TO THIS POINT =    5.84871
  # OF POINTS ALONG THE PATH =  92
  # OF STEPS =   1

 Calculating another point on the path.
 Point Number 48 in REVERSE path direction.
 Using LQA Reaction Path Following.
   LQA: T_Est iteration completed in    4 iterations.
 IRC-IRC-IRC-IRC-IRC-IRC-IRC-IRC-IRC-IRC-IRC-IRC-IRC-IRC-IRC-IRC-IRC-IRC
 Leave Link  123 at Sat Mar 16 11:08:50 2024, MaxMem=   104857600 cpu:               0.0 elap:               0.0
 (Enter /opt/g16/l202.exe)
                          Input orientation:                          
 ---------------------------------------------------------------------
 Center     Atomic      Atomic             Coordinates (Angstroms)
 Number     Number       Type             X           Y           Z
 ---------------------------------------------------------------------
      1          1           0        0.066616   -0.766542    0.851876
      2          1           0       -0.175032    1.130984    2.920042
      3          1           0        0.881207    1.319006    1.509254
      4          1           0       -0.885458    1.314666    1.307675
      5          6           0       -0.053478    0.878714    1.869078
      6         17           0        0.039065   -0.143431   -1.646346
      7          8           0       -0.039907   -0.537921    1.779347
 ---------------------------------------------------------------------
                    Distance matrix (angstroms):
                    1          2          3          4          5
     1  H    0.000000
     2  H    2.817146   0.000000
     3  H    2.333498   1.772375   0.000000
     4  H    2.333587   1.771488   1.778133   0.000000
     5  C    1.938037   1.087630   1.094059   1.094267   0.000000
     6  Cl   2.574905   4.745721   3.578510   3.421554   3.662178
     7  O    0.961154   2.026003   2.090354   2.090338   1.419539
                    6          7
     6  Cl   0.000000
     7  O    3.449236   0.000000
 Symmetry turned off by external request.
 Stoichiometry    CH4ClO(2)
 Framework group  C1[X(CH4ClO)]
 Deg. of freedom    15
 Full point group                 C1      NOp   1
 Rotational constants (GHZ):          25.7827884           2.4725332           2.2888621
 Leave Link  202 at Sat Mar 16 11:08:50 2024, MaxMem=   104857600 cpu:               0.0 elap:               0.0
 (Enter /opt/g16/l301.exe)
 Standard basis: STO-3G (5D, 7F)
 Ernie: Thresh=  0.10000D-02 Tol=  0.10000D-05 Strict=F.
    23 basis functions,    69 primitive gaussians,    23 cartesian basis functions
    18 alpha electrons       17 beta electrons
       nuclear repulsion energy        86.4716161079 Hartrees.
 IExCor=    0 DFT=F Ex=HF Corr=None ExCW=0 ScaHFX=  1.000000
 ScaDFX=  1.000000  1.000000  1.000000  1.000000 ScalE2=  1.000000  1.000000
 IRadAn=      5 IRanWt=     -1 IRanGd=            0 ICorTp=0 IEmpDi=  4
 NAtoms=    7 NActive=    7 NUniq=    7 SFac= 1.00D+00 NAtFMM=   60 NAOKFM=F Big=F
 Integral buffers will be    131072 words long.
 Raffenetti 2 integral format.
 Two-electron integral symmetry is turned off.
 Leave Link  301 at Sat Mar 16 11:08:50 2024, MaxMem=   104857600 cpu:               0.1 elap:               0.1
 (Enter /opt/g16/l402.exe)
 External calculation of energy, first and second derivatives.
 Running external command "python3 -u ../pes/h4cclo_pes.py R"
         input file       "/home/jh-li/scratch/g16/Gau-38764.EIn"
         output file      "/home/jh-li/scratch/g16/Gau-38764.EOu"
         message file     "/home/jh-li/scratch/g16/Gau-38764.EMs"
         fchk file        "/home/jh-li/scratch/g16/Gau-38764.EFC"
         mat. el file     "/home/jh-li/scratch/g16/Gau-38764.EUF"
 Recovered energy= -575.298228185     dipole=      0.000000000000      0.000000000000      0.000000000000
 Energy=    -575.298228     NIter=   0.
 Dipole moment=       0.000000       0.000000       0.000000
 Leave Link  402 at Sat Mar 16 11:08:51 2024, MaxMem=   104857600 cpu:               0.0 elap:               0.8
 (Enter /opt/g16/l716.exe)
 Dipole        = 0.00000000D+00 0.00000000D+00 0.00000000D+00
 -------------------------------------------------------------------
 Center     Atomic                   Forces (Hartrees/Bohr)
 Number     Number              X              Y              Z
 -------------------------------------------------------------------
      1        1          -0.000017013    0.000042908    0.000056935
      2        1           0.000016942   -0.000033456   -0.000029137
      3        1          -0.000012039    0.000005244    0.000026480
      4        1           0.000021027   -0.000013877    0.000058686
      5        6          -0.000023477    0.000012642    0.000257131
      6       17           0.000013188   -0.000119785   -0.000245851
      7        8           0.000000329    0.000101699   -0.000133103
 -------------------------------------------------------------------
 Cartesian Forces:  Max     0.000257131 RMS     0.000093205
 Force constants in Cartesian coordinates: 
                1             2             3             4             5 
      1  0.847502D-02
      2 -0.132533D-01  0.865771D-01
      3 -0.558545D-01  0.116121D+00  0.489227D+00
      4  0.501477D-03 -0.766983D-04 -0.299218D-03  0.518414D-01
      5  0.177317D-03 -0.803845D-02 -0.105464D-02 -0.702920D-02  0.755485D-01
      6 -0.246398D-03  0.623926D-03  0.224151D-02 -0.318281D-01  0.603594D-01
      7  0.107033D-02 -0.960220D-03 -0.997955D-04 -0.170300D-02  0.113148D-02
      8  0.198537D-03  0.152693D-02  0.250907D-02  0.617274D-02  0.299568D-02
      9 -0.132495D-02  0.680635D-04  0.174685D-02  0.289214D-01  0.109270D-01
     10  0.804010D-03  0.811586D-03  0.446446D-04  0.407916D-02 -0.351973D-02
     11 -0.619963D-03  0.152480D-02  0.243992D-02 -0.569208D-02  0.290678D-02
     12  0.109232D-02  0.283667D-03  0.240691D-02 -0.261543D-01  0.102570D-01
     13 -0.220194D-02  0.567345D-02  0.334845D-03 -0.560166D-01  0.436075D-02
     14 -0.141462D-02 -0.183900D-01  0.922473D-02  0.602571D-02 -0.544944D-01
     15  0.527598D-03 -0.468082D-01 -0.728308D-02  0.291718D-01 -0.377224D-01
     16  0.143141D-04 -0.446505D-04  0.420787D-04 -0.148091D-03 -0.198916D-04
     17  0.116113D-04 -0.324224D-03  0.348620D-03  0.132014D-04 -0.705877D-04
     18 -0.214135D-03  0.239508D-03 -0.114991D-02  0.790932D-04 -0.171273D-03
     19 -0.866562D-02  0.785210D-02  0.558294D-01  0.144871D-02  0.489857D-02
     20  0.149005D-01 -0.628753D-01 -0.129589D+00  0.586752D-03 -0.188539D-01
     21  0.560209D-01 -0.705310D-01 -0.487186D+00  0.110627D-03 -0.425999D-01
                6             7             8             9            10 
      6  0.324546D+00
      7 -0.809858D-03  0.255404D+00
      8 -0.153916D-02  0.895027D-01  0.100187D+00
      9 -0.840218D-02 -0.795843D-01 -0.339145D-01  0.798549D-01
     10  0.361672D-02 -0.218828D-01  0.889776D-02 -0.168035D-01  0.211966D+00
     11 -0.282955D-02 -0.781783D-02  0.665594D-02 -0.567232D-02 -0.790789D-01
     12 -0.145037D-01  0.101941D-01 -0.370780D-02  0.666205D-02  0.110314D+00
     13  0.292850D-01 -0.240535D+00 -0.744351D-01  0.720026D-01 -0.200422D+00
     14 -0.535140D-01 -0.779158D-01 -0.772946D-01  0.313914D-01  0.676967D-01
     15 -0.306063D+00  0.741857D-01  0.269302D-01 -0.836103D-01 -0.101345D+00
     16 -0.819917D-05 -0.993943D-04 -0.443926D-04 -0.740108D-04 -0.803898D-04
     17  0.481065D-04 -0.649513D-04 -0.579630D-04 -0.165263D-03  0.170279D-03
     18  0.795809D-04  0.151111D-03 -0.237061D-03 -0.367042D-03  0.419585D-05
     19 -0.790636D-05  0.774795D-02 -0.302960D-01 -0.313373D-02  0.553949D-02
     20 -0.315149D-02 -0.387330D-02 -0.340149D-01 -0.263815D-02  0.502115D-02
     21  0.210773D-02 -0.403959D-02  0.995805D-02  0.411707D-02  0.416949D-02
               11            12            13            14            15 
     11  0.993676D-01
     12 -0.526450D-01  0.123802D+00
     13  0.658410D-01 -0.990508D-01  0.555233D+00
     14 -0.762021D-01  0.476712D-01  0.754837D-03  0.470581D+00
     15  0.423670D-01 -0.123360D+00 -0.669587D-02 -0.847992D-03  0.610601D+00
     16  0.136153D-04  0.620778D-04  0.424401D-03  0.149038D-03  0.815176D-04
     17 -0.453425D-04 -0.132754D-03 -0.162793D-03  0.000000D+00  0.182381D-03
     18 -0.267173D-03 -0.542168D-03 -0.314757D-03  0.321537D-03  0.880096D-03
     19  0.273565D-01  0.353799D-02 -0.564939D-01  0.470471D-02  0.407208D-02
     20 -0.342096D-01 -0.173063D-02 -0.203344D-02 -0.244208D+00  0.159100D-01
     21  0.166066D-01  0.553864D-02  0.444026D-02 -0.342345D-01 -0.911759D-01
               16            17            18            19            20 
     16 -0.268663D-04
     17 -0.817951D-05  0.171521D-03
     18 -0.103179D-04 -0.421777D-03  0.343094D-02
     19 -0.836379D-04  0.407608D-04  0.305424D-03  0.505114D-01
     20 -0.456181D-04  0.326212D-03  0.537305D-03 -0.145568D-01  0.393852D+00
     21 -0.931237D-04  0.140556D-03 -0.233020D-02 -0.606043D-01  0.120659D+00
               21 
     21  0.568924D+00
 Leave Link  716 at Sat Mar 16 11:08:51 2024, MaxMem=   104857600 cpu:               0.0 elap:               0.0
 (Enter /opt/g16/l123.exe)
 IRC-IRC-IRC-IRC-IRC-IRC-IRC-IRC-IRC-IRC-IRC-IRC-IRC-IRC-IRC-IRC-IRC-IRC
 Pt 93 Step number   1 out of a maximum of  20
 Point Number:  48          Path Number:   2
                    CURRENT STRUCTURE
                Cartesian Coordinates (Ang):                
 ---------------------------------------------------------------------
 Center     Atomic                     Coordinates (Angstroms)
 Number     Number                        X           Y           Z
 ---------------------------------------------------------------------
      1          1                    0.066616   -0.766542    0.851876
      2          1                   -0.175032    1.130984    2.920042
      3          1                    0.881207    1.319006    1.509254
      4          1                   -0.885458    1.314666    1.307675
      5          6                   -0.053478    0.878714    1.869078
      6         17                    0.039065   -0.143431   -1.646346
      7          8                   -0.039907   -0.537921    1.779347
 ---------------------------------------------------------------------
   CHANGE IN THE REACTION COORDINATE =    0.12451
   NET REACTION COORDINATE UP TO THIS POINT =    5.97323
  # OF POINTS ALONG THE PATH =  93
  # OF STEPS =   1

 PES minimum detected on this side of the pathway.
    Magnitude of the gradient =      0.0001482
 Calculation of REVERSE path complete.
 Reaction path calculation complete.
 
 Energies reported relative to the TS energy of        -575.297021
 --------------------------------------------------------------------------
    Summary of reaction path following
 --------------------------------------------------------------------------
                        Energy    RxCoord
   1                   -0.00121  -5.97323
   2                   -0.00119  -5.84871
   3                   -0.00118  -5.72421
   4                   -0.00116  -5.59971
   5                   -0.00115  -5.47521
   6                   -0.00113  -5.35071
   7                   -0.00111  -5.22621
   8                   -0.00109  -5.10169
   9                   -0.00107  -4.97717
  10                   -0.00104  -4.85265
  11                   -0.00101  -4.72812
  12                   -0.00099  -4.60359
  13                   -0.00096  -4.47905
  14                   -0.00093  -4.35451
  15                   -0.00090  -4.22997
  16                   -0.00086  -4.10544
  17                   -0.00083  -3.98090
  18                   -0.00080  -3.85636
  19                   -0.00076  -3.73183
  20                   -0.00073  -3.60729
  21                   -0.00069  -3.48276
  22                   -0.00066  -3.35824
  23                   -0.00063  -3.23371
  24                   -0.00059  -3.10919
  25                   -0.00056  -2.98468
  26                   -0.00053  -2.86017
  27                   -0.00050  -2.73567
  28                   -0.00047  -2.61117
  29                   -0.00044  -2.48669
  30                   -0.00041  -2.36221
  31                   -0.00038  -2.23774
  32                   -0.00035  -2.11329
  33                   -0.00032  -1.98885
  34                   -0.00029  -1.86442
  35                   -0.00027  -1.74001
  36                   -0.00024  -1.61561
  37                   -0.00022  -1.49123
  38                   -0.00019  -1.36687
  39                   -0.00017  -1.24253
  40                   -0.00014  -1.11820
  41                   -0.00012  -0.99390
  42                   -0.00010  -0.86962
  43                   -0.00008  -0.74535
  44                   -0.00006  -0.62111
  45                   -0.00004  -0.49690
  46                   -0.00002  -0.37273
  47                   -0.00001  -0.24857
  48                   -0.00000  -0.12464
  49                    0.00000   0.00000
  50                   -0.00000   0.12464
  51                   -0.00001   0.24861
  52                   -0.00003   0.37280
  53                   -0.00006   0.49711
  54                   -0.00009   0.62151
  55                   -0.00014   0.74595
  56                   -0.00020   0.87044
  57                   -0.00028   0.99496
  58                   -0.00037   1.11949
  59                   -0.00048   1.24403
  60                   -0.00061   1.36858
  61                   -0.00075   1.49314
  62                   -0.00092   1.61769
  63                   -0.00112   1.74224
  64                   -0.00138   1.86679
  65                   -0.00172   1.99136
  66                   -0.00227   2.11585
  67                   -0.00317   2.24034
  68                   -0.00438   2.36487
  69                   -0.00557   2.48938
  70                   -0.00633   2.61311
  71                   -0.00683   2.73714
  72                   -0.00726   2.86156
  73                   -0.00764   2.98611
  74                   -0.00799   3.11070
  75                   -0.00831   3.23530
  76                   -0.00861   3.35990
  77                   -0.00889   3.48451
  78                   -0.00914   3.60912
  79                   -0.00938   3.73374
  80                   -0.00959   3.85835
  81                   -0.00978   3.98296
  82                   -0.00996   4.10757
  83                   -0.01011   4.23218
  84                   -0.01025   4.35679
  85                   -0.01038   4.48140
  86                   -0.01049   4.60602
  87                   -0.01058   4.73063
  88                   -0.01067   4.85524
  89                   -0.01074   4.97985
  90                   -0.01079   5.10446
  91                   -0.01084   5.22907
  92                   -0.01088   5.35368
  93                   -0.01090   5.47829
  94                   -0.01092   5.60289
 --------------------------------------------------------------------------
 
 Total number of points:                   93
 Total number of gradient calculations:    94
 Total number of Hessian calculations:     94
 IRC-IRC-IRC-IRC-IRC-IRC-IRC-IRC-IRC-IRC-IRC-IRC-IRC-IRC-IRC-IRC-IRC-IRC
 Leave Link  123 at Sat Mar 16 11:08:51 2024, MaxMem=   104857600 cpu:               0.0 elap:               0.0
 (Enter /opt/g16/l202.exe)
                          Input orientation:                          
 ---------------------------------------------------------------------
 Center     Atomic      Atomic             Coordinates (Angstroms)
 Number     Number       Type             X           Y           Z
 ---------------------------------------------------------------------
      1          1           0        0.066616   -0.766542    0.851876
      2          1           0       -0.175032    1.130984    2.920042
      3          1           0        0.881207    1.319006    1.509254
      4          1           0       -0.885458    1.314666    1.307675
      5          6           0       -0.053478    0.878714    1.869078
      6         17           0        0.039065   -0.143431   -1.646346
      7          8           0       -0.039907   -0.537921    1.779347
 ---------------------------------------------------------------------
                    Distance matrix (angstroms):
                    1          2          3          4          5
     1  H    0.000000
     2  H    2.817146   0.000000
     3  H    2.333498   1.772375   0.000000
     4  H    2.333587   1.771488   1.778133   0.000000
     5  C    1.938037   1.087630   1.094059   1.094267   0.000000
     6  Cl   2.574905   4.745721   3.578510   3.421554   3.662178
     7  O    0.961154   2.026003   2.090354   2.090338   1.419539
                    6          7
     6  Cl   0.000000
     7  O    3.449236   0.000000
 Symmetry turned off by external request.
 Stoichiometry    CH4ClO(2)
 Framework group  C1[X(CH4ClO)]
 Deg. of freedom    15
 Full point group                 C1      NOp   1
 Rotational constants (GHZ):          25.7827884           2.4725332           2.2888621
 Leave Link  202 at Sat Mar 16 11:08:51 2024, MaxMem=   104857600 cpu:               0.0 elap:               0.0
 (Enter /opt/g16/l601.exe)
 Leave Link  601 at Sat Mar 16 11:08:51 2024, MaxMem=   104857600 cpu:               0.0 elap:               0.0
 (Enter /opt/g16/l9999.exe)

 This type of calculation cannot be archived.


 I WOULD TAKE COUNSEL OF MYSELF.
 I WOULD STOP AND LOOK WITHIN
 AND LOOKING WITHIN, LOOK BACK, ALSO
 THAT I MAY LOOK AHEAD WITH CLEARER UNDERSTANDING
 OF THE WAY I HAVE BEEN MOVING, AND IN WHAT DIRECTION.
 I NEED TO KNOW IF I AM GOING FORWARD OR RETREATING,
 WHETHER I HAVE BEEN WASTING, OR ENJOYING
 THE PRECIOUS MOMENTS OF LIFE.  THERE HAVE BEEN FRICTIONS,
 ANNOYANCES AND SOMETIMES WRATH,
 BUT WERE THEY BECAUSE I WAS RIGHT AND OTHERS WRONG.....
 HAVE I HAD MY THOUGHTS TOO SHARPLY FOCUSED
 ON THAT WHICH PLEASED ME, SERVED MY SELF-ESTEEM,
 UNDERGIRDED MY SECURITY,
 OF WHICH I DID NOT INQUIRE WHETHER IT SERVED OR HAMPERED OTHERS.....
 HAVE I BEEN TRYING TO STOP THE CLOCK
 TO HOLD THE WORLD
 IN PERPETUATION OF WHAT WAS AN IS ALREADY SLIPPING AWAY.....
 HAVE I BEEN CRITICAL OF OTHERS FOR WHAT REALLY NEEDED CHANGING IN ME...
 LET ME INDEED TAKE COUNSEL OF MYSELF
 AND SET MY DIRECTIONS STRAIGHT.

                          R.T. WESTON AS ADAPTED BY D. OSBORN 1967
 Job cpu time:       0 days  0 hours  0 minutes 16.1 seconds.
 Elapsed time:       0 days  0 hours  1 minutes 24.6 seconds.
 File lengths (MBytes):  RWF=      6 Int=      0 D2E=      0 Chk=      2 Scr=      1
 Normal termination of Gaussian 16 at Sat Mar 16 11:08:51 2024.
