 Entering Gaussian System, Link 0=g16
 Initial command:
 /opt/g16/l1.exe "/home/jh-li/scratch/g16/Gau-698773.inp" -scrdir="/home/jh-li/scratch/g16/"
 Entering Link 1 = /opt/g16/l1.exe PID=    698776.
  
 Copyright (c) 1988-2019, Gaussian, Inc.  All Rights Reserved.
  
 This is part of the Gaussian(R) 16 program.  It is based on
 the Gaussian(R) 09 system (copyright 2009, Gaussian, Inc.),
 the Gaussian(R) 03 system (copyright 2003, Gaussian, Inc.),
 the Gaussian(R) 98 system (copyright 1998, Gaussian, Inc.),
 the Gaussian(R) 94 system (copyright 1995, Gaussian, Inc.),
 the Gaussian 92(TM) system (copyright 1992, Gaussian, Inc.),
 the Gaussian 90(TM) system (copyright 1990, Gaussian, Inc.),
 the Gaussian 88(TM) system (copyright 1988, Gaussian, Inc.),
 the Gaussian 86(TM) system (copyright 1986, Carnegie Mellon
 University), and the Gaussian 82(TM) system (copyright 1983,
 Carnegie Mellon University). Gaussian is a federally registered
 trademark of Gaussian, Inc.
  
 This software contains proprietary and confidential information,
 including trade secrets, belonging to Gaussian, Inc.
  
 This software is provided under written license and may be
 used, copied, transmitted, or stored only in accord with that
 written license.
  
 The following legend is applicable only to US Government
 contracts under FAR:
  
                    RESTRICTED RIGHTS LEGEND
  
 Use, reproduction and disclosure by the US Government is
 subject to restrictions as set forth in subparagraphs (a)
 and (c) of the Commercial Computer Software - Restricted
 Rights clause in FAR 52.227-19.
  
 Gaussian, Inc.
 340 Quinnipiac St., Bldg. 40, Wallingford CT 06492
  
  
 ---------------------------------------------------------------
 Warning -- This program may not be used in any manner that
 competes with the business of Gaussian, Inc. or will provide
 assistance to any competitor of Gaussian, Inc.  The licensee
 of this program is prohibited from giving any competitor of
 Gaussian, Inc. access to this program.  By using this program,
 the user acknowledges that Gaussian, Inc. is engaged in the
 business of creating and licensing software in the field of
 computational chemistry and represents and warrants to the
 licensee that it is not a competitor of Gaussian, Inc. and that
 it will not use this program in any manner prohibited above.
 ---------------------------------------------------------------
  

 Cite this work as:
 Gaussian 16, Revision C.01,
 M. J. Frisch, G. W. Trucks, H. B. Schlegel, G. E. Scuseria, 
 M. A. Robb, J. R. Cheeseman, G. Scalmani, V. Barone, 
 G. A. Petersson, H. Nakatsuji, X. Li, M. Caricato, A. V. Marenich, 
 J. Bloino, B. G. Janesko, R. Gomperts, B. Mennucci, H. P. Hratchian, 
 J. V. Ortiz, A. F. Izmaylov, J. L. Sonnenberg, D. Williams-Young, 
 F. Ding, F. Lipparini, F. Egidi, J. Goings, B. Peng, A. Petrone, 
 T. Henderson, D. Ranasinghe, V. G. Zakrzewski, J. Gao, N. Rega, 
 G. Zheng, W. Liang, M. Hada, M. Ehara, K. Toyota, R. Fukuda, 
 J. Hasegawa, M. Ishida, T. Nakajima, Y. Honda, O. Kitao, H. Nakai, 
 T. Vreven, K. Throssell, J. A. Montgomery, Jr., J. E. Peralta, 
 F. Ogliaro, M. J. Bearpark, J. J. Heyd, E. N. Brothers, K. N. Kudin, 
 V. N. Staroverov, T. A. Keith, R. Kobayashi, J. Normand, 
 K. Raghavachari, A. P. Rendell, J. C. Burant, S. S. Iyengar, 
 J. Tomasi, M. Cossi, J. M. Millam, M. Klene, C. Adamo, R. Cammi, 
 J. W. Ochterski, R. L. Martin, K. Morokuma, O. Farkas, 
 J. B. Foresman, and D. J. Fox, Gaussian, Inc., Wallingford CT, 2019.
 
 ******************************************
 Gaussian 16:  ES64L-G16RevC.01  3-Jul-2019
                 7-Mar-2024 
 ******************************************
 %nproc=1
 Will use up to    1 processors via shared memory.
 %chk=CH2OH-opt-freq.chk
 -------------------------------------------------------
 #p external="python3 -u ../pes/h3co_pes.py" opt=nomicro
 -------------------------------------------------------
 1/18=20,19=15,26=1,38=1/1,3;
 2/9=110,12=2,17=6,18=5,40=1/2;
 3/11=9,25=1,30=1,41=9900000,43=2,71=1/1;
 4/20=17,22=1,24=3,113=1,114=1/2;
 6/7=2,8=2,9=2,10=2/1;
 7/44=-1/16;
 1/18=20,19=15,26=1/3(2);
 2/9=110/2;
 99//99;
 2/9=110/2;
 3/11=9,25=1,30=1,41=9900000,43=2,71=1/1;
 4/16=2,20=17,22=1,24=3,113=1,114=1/2;
 7/44=-1/16;
 1/18=20,19=15,26=1/3(-4);
 2/9=110/2;
 6/7=2,8=2,9=2,10=2/1;
 99/9=10/99;
 Leave Link    1 at Thu Mar  7 13:43:51 2024, MaxMem=           0 cpu:               0.0 elap:               0.0
 (Enter /opt/g16/l101.exe)
 -----
 CH2OH
 -----
 Symbolic Z-matrix:
 Charge =  0 Multiplicity = 2
 H                    -0.81603  -0.06521  -1.00514 
 H                     0.92459   0.13152   1.22314 
 H                    -0.95681   0.2046    1.2003 
 C                    -0.01626  -0.03968   0.72693 
 O                     0.06565   0.01272  -0.63507 
 
 Add atom      4 valence  3 ND=      2 dihedral       5      3      4      2
 ITRead=  0  0  0  0  0
 MicOpt= -1 -1 -1 -1 -1
 NAtoms=      5 NQM=        5 NQMF=       0 NMMI=      0 NMMIF=      0
                NMic=       0 NMicF=      0.
                    Isotopes and Nuclear Properties:
 (Nuclear quadrupole moments (NQMom) in fm**2, nuclear magnetic moments (NMagM)
  in nuclear magnetons)

  Atom         1           2           3           4           5
 IAtWgt=           1           1           1          12          16
 AtmWgt=   1.0078250   1.0078250   1.0078250  12.0000000  15.9949146
 NucSpn=           1           1           1           0           0
 AtZEff=  -0.0000000  -0.0000000  -0.0000000  -0.0000000  -0.0000000
 NQMom=    0.0000000   0.0000000   0.0000000   0.0000000   0.0000000
 NMagM=    2.7928460   2.7928460   2.7928460   0.0000000   0.0000000
 AtZNuc=   1.0000000   1.0000000   1.0000000   6.0000000   8.0000000
 Leave Link  101 at Thu Mar  7 13:43:51 2024, MaxMem=   104857600 cpu:               0.1 elap:               0.1
 (Enter /opt/g16/l103.exe)

 GradGradGradGradGradGradGradGradGradGradGradGradGradGradGradGradGradGrad
 Berny optimization.
 Initialization pass.
                           ----------------------------
                           !    Initial Parameters    !
                           ! (Angstroms and Degrees)  !
 --------------------------                            --------------------------
 ! Name  Definition              Value          Derivative Info.                !
 --------------------------------------------------------------------------------
 ! R1    R(1,5)                  0.9594         estimate D2E/DX2                !
 ! R2    R(2,4)                  1.0774         estimate D2E/DX2                !
 ! R3    R(3,4)                  1.0809         estimate D2E/DX2                !
 ! R4    R(4,5)                  1.3655         estimate D2E/DX2                !
 ! A1    A(2,4,3)              121.4837         estimate D2E/DX2                !
 ! A2    A(2,4,5)              113.6358         estimate D2E/DX2                !
 ! A3    A(3,4,5)              118.7085         estimate D2E/DX2                !
 ! A4    A(1,5,4)              109.0575         estimate D2E/DX2                !
 ! D1    D(5,3,4,2)            150.6242         estimate D2E/DX2                !
 ! D2    D(2,4,5,1)           -174.7218         estimate D2E/DX2                !
 ! D3    D(3,4,5,1)            -21.8916         estimate D2E/DX2                !
 --------------------------------------------------------------------------------
 Trust Radius=3.00D-01 FncErr=1.00D-07 GrdErr=1.00D-07 EigMax=2.50D+02 EigMin=1.00D-04
 Number of steps in this run=     21 maximum allowed number of steps=    100.
 GradGradGradGradGradGradGradGradGradGradGradGradGradGradGradGradGradGrad

 Leave Link  103 at Thu Mar  7 13:43:51 2024, MaxMem=   104857600 cpu:               0.0 elap:               0.0
 (Enter /opt/g16/l202.exe)
                          Input orientation:                          
 ---------------------------------------------------------------------
 Center     Atomic      Atomic             Coordinates (Angstroms)
 Number     Number       Type             X           Y           Z
 ---------------------------------------------------------------------
      1          1           0       -0.816029   -0.065210   -1.005137
      2          1           0        0.924589    0.131519    1.223142
      3          1           0       -0.956808    0.204600    1.200303
      4          6           0       -0.016264   -0.039682    0.726927
      5          8           0        0.065648    0.012723   -0.635067
 ---------------------------------------------------------------------
                    Distance matrix (angstroms):
                    1          2          3          4          5
     1  H    0.000000
     2  H    2.834375   0.000000
     3  H    2.226339   1.882955   0.000000
     4  C    1.907962   1.077379   1.080917   0.000000
     5  O    0.959365   2.050569   2.109696   1.365460   0.000000
 Stoichiometry    CH3O(2)
 Framework group  C1[X(CH3O)]
 Deg. of freedom     9
 Full point group                 C1      NOp   1
 Largest Abelian subgroup         C1      NOp   1
 Largest concise Abelian subgroup C1      NOp   1
                         Standard orientation:                         
 ---------------------------------------------------------------------
 Center     Atomic      Atomic             Coordinates (Angstroms)
 Number     Number       Type             X           Y           Z
 ---------------------------------------------------------------------
      1          1           0        1.087828    0.734701   -0.054905
      2          1           0       -1.232774   -0.885001    0.103383
      3          1           0       -1.112595    0.993135    0.164033
      4          6           0       -0.684059    0.027121   -0.063023
      5          8           0        0.670237   -0.125695    0.020703
 ---------------------------------------------------------------------
 Rotational constants (GHZ):         193.4232862          29.9832992          26.1889955
 Leave Link  202 at Thu Mar  7 13:43:51 2024, MaxMem=   104857600 cpu:               0.0 elap:               0.0
 (Enter /opt/g16/l301.exe)
 Standard basis: STO-3G (5D, 7F)
 Ernie: Thresh=  0.10000D-02 Tol=  0.10000D-05 Strict=F.
 There are    13 symmetry adapted cartesian basis functions of A   symmetry.
 There are    13 symmetry adapted basis functions of A   symmetry.
    13 basis functions,    39 primitive gaussians,    13 cartesian basis functions
     9 alpha electrons        8 beta electrons
       nuclear repulsion energy        35.3399896337 Hartrees.
 IExCor=    0 DFT=F Ex=HF Corr=None ExCW=0 ScaHFX=  1.000000
 ScaDFX=  1.000000  1.000000  1.000000  1.000000 ScalE2=  1.000000  1.000000
 IRadAn=      5 IRanWt=     -1 IRanGd=            0 ICorTp=0 IEmpDi=  4
 NAtoms=    5 NActive=    5 NUniq=    5 SFac= 1.00D+00 NAtFMM=   60 NAOKFM=F Big=F
 Integral buffers will be    131072 words long.
 Raffenetti 2 integral format.
 Two-electron integral symmetry is turned on.
 Leave Link  301 at Thu Mar  7 13:43:52 2024, MaxMem=   104857600 cpu:               0.0 elap:               0.0
 (Enter /opt/g16/l402.exe)
 External calculation of energy and first derivatives.
 Running external command "python3 -u ../pes/h3co_pes.py R"
         input file       "/home/jh-li/scratch/g16/Gau-698776.EIn"
         output file      "/home/jh-li/scratch/g16/Gau-698776.EOu"
         message file     "/home/jh-li/scratch/g16/Gau-698776.EMs"
         fchk file        "/home/jh-li/scratch/g16/Gau-698776.EFC"
         mat. el file     "/home/jh-li/scratch/g16/Gau-698776.EUF"
 Recovered energy= -215.294727340     dipole=      0.000000000000      0.000000000000      0.000000000000
 Energy=    -215.294727     NIter=   0.
 Dipole moment=       0.000000       0.000000       0.000000
 Leave Link  402 at Thu Mar  7 13:43:52 2024, MaxMem=   104857600 cpu:               0.0 elap:               0.2
 (Enter /opt/g16/l601.exe)
 Leave Link  601 at Thu Mar  7 13:43:52 2024, MaxMem=   104857600 cpu:               0.0 elap:               0.0
 (Enter /opt/g16/l716.exe)
 Dipole        = 0.00000000D+00 0.00000000D+00 0.00000000D+00
 ***** Axes restored to original set *****
 -------------------------------------------------------------------
 Center     Atomic                   Forces (Hartrees/Bohr)
 Number     Number              X              Y              Z
 -------------------------------------------------------------------
      1        1           0.000211751    0.000267355   -0.000743383
      2        1           0.000581959    0.000361604    0.000619209
      3        1          -0.000067272    0.000067645    0.000363893
      4        6           0.000018317   -0.000335369   -0.000505086
      5        8          -0.000742647   -0.000354079    0.000264896
 -------------------------------------------------------------------
 Cartesian Forces:  Max     0.000743383 RMS     0.000430372
 Leave Link  716 at Thu Mar  7 13:43:52 2024, MaxMem=   104857600 cpu:               0.0 elap:               0.0
 (Enter /opt/g16/l103.exe)

 GradGradGradGradGradGradGradGradGradGradGradGradGradGradGradGradGradGrad
 Berny optimization.
 FormGI is forming the generalized inverse of G from B-inverse, IUseBI=4.
 Internal  Forces:  Max     0.001435617 RMS     0.000554189
 Search for a local minimum.
 Step number   1 out of a maximum of   21
 All quantities printed in internal units (Hartrees-Bohrs-Radians)
 RMS Force = .55419D-03 SwitMx=.10000D-02 MixMth= 2
 Mixed Optimization -- En-DIIS/RFO-DIIS
 Second derivative matrix not updated -- first step.
 The second derivative matrix:
                          R1        R2        R3        R4        A1
           R1           0.55610
           R2           0.00000   0.36313
           R3           0.00000   0.00000   0.35884
           R4           0.00000   0.00000   0.00000   0.51859
           A1           0.00000   0.00000   0.00000   0.00000   0.16000
           A2           0.00000   0.00000   0.00000   0.00000   0.00000
           A3           0.00000   0.00000   0.00000   0.00000   0.00000
           A4           0.00000   0.00000   0.00000   0.00000   0.00000
           D1           0.00000   0.00000   0.00000   0.00000   0.00000
           D2           0.00000   0.00000   0.00000   0.00000   0.00000
           D3           0.00000   0.00000   0.00000   0.00000   0.00000
                          A2        A3        A4        D1        D2
           A2           0.16000
           A3           0.00000   0.16000
           A4           0.00000   0.00000   0.16000
           D1           0.00000   0.00000   0.00000   0.00355
           D2           0.00000   0.00000   0.00000   0.00000   0.02149
           D3           0.00000   0.00000   0.00000   0.00000   0.00000
                          D3
           D3           0.02149
 ITU=  0
     Eigenvalues ---    0.01522   0.02149   0.15291   0.16000   0.16000
     Eigenvalues ---    0.35884   0.36313   0.51859   0.55610
 RFO step:  Lambda=-2.08858402D-05 EMin= 1.52242966D-02
 Linear search not attempted -- first point.
 Iteration  1 RMS(Cart)=  0.00525874 RMS(Int)=  0.00003081
 Iteration  2 RMS(Cart)=  0.00002468 RMS(Int)=  0.00000228
 Iteration  3 RMS(Cart)=  0.00000000 RMS(Int)=  0.00000228
 ITry= 1 IFail=0 DXMaxC= 1.11D-02 DCOld= 1.00D+10 DXMaxT= 3.00D-01 DXLimC= 3.00D+00 Rises=F
 Variable       Old X    -DE/DX   Delta X   Delta X   Delta X     New X
                                 (Linear)    (Quad)   (Total)
    R1        1.81294   0.00006   0.00000   0.00012   0.00012   1.81305
    R2        2.03595   0.00085   0.00000   0.00234   0.00234   2.03829
    R3        2.04264   0.00024   0.00000   0.00066   0.00066   2.04329
    R4        2.58035   0.00045   0.00000   0.00086   0.00086   2.58121
    A1        2.12029  -0.00042   0.00000  -0.00327  -0.00328   2.11701
    A2        1.98332   0.00017   0.00000   0.00045   0.00045   1.98377
    A3        2.07185   0.00022   0.00000   0.00077   0.00076   2.07262
    A4        1.90341   0.00144   0.00000   0.00897   0.00897   1.91238
    D1        2.62889  -0.00002   0.00000  -0.00438  -0.00438   2.62451
    D2       -3.04947   0.00028   0.00000   0.01130   0.01130  -3.03817
    D3       -0.38208   0.00009   0.00000   0.00617   0.00617  -0.37591
         Item               Value     Threshold  Converged?
 Maximum Force            0.001436     0.000450     NO 
 RMS     Force            0.000554     0.000300     NO 
 Maximum Displacement     0.011091     0.001800     NO 
 RMS     Displacement     0.005260     0.001200     NO 
 Predicted change in Energy=-1.044212D-05
 GradGradGradGradGradGradGradGradGradGradGradGradGradGradGradGradGradGrad

 Leave Link  103 at Thu Mar  7 13:43:52 2024, MaxMem=   104857600 cpu:               0.0 elap:               0.0
 (Enter /opt/g16/l202.exe)
                          Input orientation:                          
 ---------------------------------------------------------------------
 Center     Atomic      Atomic             Coordinates (Angstroms)
 Number     Number       Type             X           Y           Z
 ---------------------------------------------------------------------
      1          1           0       -0.815715   -0.062229   -1.011006
      2          1           0        0.925265    0.134340    1.224037
      3          1           0       -0.955925    0.204325    1.203401
      4          6           0       -0.016328   -0.041549    0.728178
      5          8           0        0.063839    0.009062   -0.634442
 ---------------------------------------------------------------------
                    Distance matrix (angstroms):
                    1          2          3          4          5
     1  H    0.000000
     2  H    2.839907   0.000000
     3  H    2.234795   1.882605   0.000000
     4  C    1.914213   1.078615   1.081265   0.000000
     5  O    0.959426   2.052242   2.110856   1.365915   0.000000
 Stoichiometry    CH3O(2)
 Framework group  C1[X(CH3O)]
 Deg. of freedom     9
 Full point group                 C1      NOp   1
 RotChk:  IX=0 Diff= 3.29D-03
 Largest Abelian subgroup         C1      NOp   1
 Largest concise Abelian subgroup C1      NOp   1
                         Standard orientation:                         
 ---------------------------------------------------------------------
 Center     Atomic      Atomic             Coordinates (Angstroms)
 Number     Number       Type             X           Y           Z
 ---------------------------------------------------------------------
      1          1           0        1.095345    0.731554   -0.049333
      2          1           0       -1.234738   -0.884323    0.107909
      3          1           0       -1.113835    0.993582    0.163205
      4          6           0       -0.684609    0.027446   -0.063688
      5          8           0        0.670110   -0.125686    0.020044
 ---------------------------------------------------------------------
 Rotational constants (GHZ):         193.7308490          29.9274231          26.1535645
 Leave Link  202 at Thu Mar  7 13:43:52 2024, MaxMem=   104857600 cpu:               0.0 elap:               0.0
 (Enter /opt/g16/l301.exe)
 Standard basis: STO-3G (5D, 7F)
 Ernie: Thresh=  0.10000D-02 Tol=  0.10000D-05 Strict=F.
 There are    13 symmetry adapted cartesian basis functions of A   symmetry.
 There are    13 symmetry adapted basis functions of A   symmetry.
    13 basis functions,    39 primitive gaussians,    13 cartesian basis functions
     9 alpha electrons        8 beta electrons
       nuclear repulsion energy        35.3197578426 Hartrees.
 IExCor=    0 DFT=F Ex=HF Corr=None ExCW=0 ScaHFX=  1.000000
 ScaDFX=  1.000000  1.000000  1.000000  1.000000 ScalE2=  1.000000  1.000000
 IRadAn=      5 IRanWt=     -1 IRanGd=            0 ICorTp=0 IEmpDi=  4
 NAtoms=    5 NActive=    5 NUniq=    5 SFac= 1.00D+00 NAtFMM=   60 NAOKFM=F Big=F
 Integral buffers will be    131072 words long.
 Raffenetti 2 integral format.
 Two-electron integral symmetry is turned on.
 Leave Link  301 at Thu Mar  7 13:43:52 2024, MaxMem=   104857600 cpu:               0.1 elap:               0.0
 (Enter /opt/g16/l402.exe)
 External calculation of energy and first derivatives.
 Running external command "python3 -u ../pes/h3co_pes.py R"
         input file       "/home/jh-li/scratch/g16/Gau-698776.EIn"
         output file      "/home/jh-li/scratch/g16/Gau-698776.EOu"
         message file     "/home/jh-li/scratch/g16/Gau-698776.EMs"
         fchk file        "/home/jh-li/scratch/g16/Gau-698776.EFC"
         mat. el file     "/home/jh-li/scratch/g16/Gau-698776.EUF"
 Recovered energy= -215.294738430     dipole=      0.000000000000      0.000000000000      0.000000000000
 Energy=    -215.294738     NIter=   0.
 Dipole moment=       0.000000       0.000000       0.000000
 Leave Link  402 at Thu Mar  7 13:43:52 2024, MaxMem=   104857600 cpu:               0.0 elap:               0.2
 (Enter /opt/g16/l716.exe)
 Dipole        = 0.00000000D+00 0.00000000D+00 0.00000000D+00
 ***** Axes restored to original set *****
 -------------------------------------------------------------------
 Center     Atomic                   Forces (Hartrees/Bohr)
 Number     Number              X              Y              Z
 -------------------------------------------------------------------
      1        1           0.000091202    0.000155785    0.000193893
      2        1          -0.000015965    0.000138118    0.000007171
      3        1          -0.000004791    0.000000418    0.000122730
      4        6          -0.000085674   -0.000104231   -0.000655655
      5        8           0.000017212   -0.000182882    0.000331359
 -------------------------------------------------------------------
 Cartesian Forces:  Max     0.000655655 RMS     0.000215450
 Leave Link  716 at Thu Mar  7 13:43:52 2024, MaxMem=   104857600 cpu:               0.0 elap:               0.0
 (Enter /opt/g16/l103.exe)

 GradGradGradGradGradGradGradGradGradGradGradGradGradGradGradGradGradGrad
 Berny optimization.
 Using GEDIIS/GDIIS optimizer.
 FormGI is forming the generalized inverse of G from B-inverse, IUseBI=4.
 Internal  Forces:  Max     0.000514869 RMS     0.000195641
 Search for a local minimum.
 Step number   2 out of a maximum of   21
 All quantities printed in internal units (Hartrees-Bohrs-Radians)
 RMS Force = .19564D-03 SwitMx=.10000D-02 MixMth= 2
 Mixed Optimization -- En-DIIS/RFO-DIIS
 Swapping is turned off.
 Update second derivatives using D2CorX and points    1    2
 DE= -1.11D-05 DEPred=-1.04D-05 R= 1.06D+00
 TightC=F SS=  1.41D+00  RLast= 1.68D-02 DXNew= 5.0454D-01 5.0516D-02
 Trust test= 1.06D+00 RLast= 1.68D-02 DXMaxT set to 3.00D-01
 The second derivative matrix:
                          R1        R2        R3        R4        A1
           R1           0.55879
           R2           0.00741   0.36346
           R3           0.00136  -0.00233   0.35769
           R4           0.01010   0.02173   0.00327   0.55470
           A1          -0.00214   0.00825   0.00320  -0.00374   0.15173
           A2           0.00235   0.00602   0.00105   0.00870  -0.00155
           A3           0.00062  -0.00149  -0.00066   0.00137   0.00176
           A4           0.01544   0.01063  -0.00184   0.04830   0.01019
           D1           0.00041   0.00189   0.00044   0.00177  -0.00086
           D2           0.00066  -0.00496  -0.00172   0.00043   0.00426
           D3          -0.00042  -0.00543  -0.00151  -0.00289   0.00335
                          A2        A3        A4        D1        D2
           A2           0.16205
           A3           0.00047   0.15963
           A4           0.01278  -0.00152   0.19794
           D1           0.00038   0.00022   0.00356   0.00358
           D2           0.00042  -0.00093  -0.00698   0.00036   0.01935
           D3          -0.00047  -0.00078  -0.00921   0.00010  -0.00155
                          D3
           D3           0.02065
 ITU=  1  0
     Eigenvalues ---    0.01415   0.01804   0.14866   0.15676   0.19394
     Eigenvalues ---    0.35634   0.36278   0.54868   0.57491
 En-DIIS/RFO-DIIS/Sim-DIIS IScMMF=       -3 using points:     2    1
 RFO step:  Lambda=-3.17537461D-06.
 NNeg= 0 NGDIIS= 2 SimSw=  2.50D-03 Rises=F DC= -1.11D-05 SmlDif=  1.00D-05
 NRisDI= 0 DoIntr=F SqrtH=F CThrHd= 10.0 CDAdj=  3.0
 RMS Error=  0.3680129595D-02 NUsed= 2 OKEnD=T EnDIS=F
 InvSVX:  RCond= 7.08D-05 Info=           0 Equed=N FErr=  2.98D-15 BErr=  3.49D-17
 DidBck=F Rises=F RFO-DIIS coefs:    1.59161   -0.59161
 Iteration  1 RMS(Cart)=  0.00274635 RMS(Int)=  0.00001094
 Iteration  2 RMS(Cart)=  0.00000901 RMS(Int)=  0.00000289
 Iteration  3 RMS(Cart)=  0.00000000 RMS(Int)=  0.00000289
 ITry= 1 IFail=0 DXMaxC= 5.19D-03 DCOld= 1.00D+10 DXMaxT= 3.00D-01 DXLimC= 3.00D+00 Rises=F
 Variable       Old X    -DE/DX   Delta X   Delta X   Delta X     New X
                                 (Linear)    (Quad)   (Total)
    R1        1.81305  -0.00018   0.00007  -0.00038  -0.00031   1.81274
    R2        2.03829   0.00001   0.00138  -0.00100   0.00038   2.03867
    R3        2.04329   0.00006   0.00039  -0.00011   0.00027   2.04357
    R4        2.58121  -0.00051   0.00051  -0.00140  -0.00089   2.58031
    A1        2.11701  -0.00010  -0.00194   0.00029  -0.00166   2.11536
    A2        1.98377  -0.00005   0.00027  -0.00107  -0.00081   1.98296
    A3        2.07262   0.00013   0.00045   0.00002   0.00047   2.07308
    A4        1.91238  -0.00023   0.00531  -0.00542  -0.00011   1.91228
    D1        2.62451  -0.00005  -0.00259  -0.00197  -0.00456   2.61995
    D2       -3.03817   0.00016   0.00668   0.00310   0.00978  -3.02839
    D3       -0.37591   0.00009   0.00365   0.00163   0.00528  -0.37064
         Item               Value     Threshold  Converged?
 Maximum Force            0.000515     0.000450     NO 
 RMS     Force            0.000196     0.000300     YES
 Maximum Displacement     0.005188     0.001800     NO 
 RMS     Displacement     0.002748     0.001200     NO 
 Predicted change in Energy=-1.587023D-06
 GradGradGradGradGradGradGradGradGradGradGradGradGradGradGradGradGradGrad

 Leave Link  103 at Thu Mar  7 13:43:52 2024, MaxMem=   104857600 cpu:               0.0 elap:               0.0
 (Enter /opt/g16/l202.exe)
                          Input orientation:                          
 ---------------------------------------------------------------------
 Center     Atomic      Atomic             Coordinates (Angstroms)
 Number     Number       Type             X           Y           Z
 ---------------------------------------------------------------------
      1          1           0       -0.815651   -0.059520   -1.010594
      2          1           0        0.924876    0.136456    1.223506
      3          1           0       -0.955834    0.203939    1.203320
      4          6           0       -0.016438   -0.043242    0.728047
      5          8           0        0.064183    0.006317   -0.634111
 ---------------------------------------------------------------------
                    Distance matrix (angstroms):
                    1          2          3          4          5
     1  H    0.000000
     2  H    2.838845   0.000000
     3  H    2.233937   1.882029   0.000000
     4  C    1.913603   1.078816   1.081410   0.000000
     5  O    0.959261   2.051456   2.110840   1.365442   0.000000
 Stoichiometry    CH3O(2)
 Framework group  C1[X(CH3O)]
 Deg. of freedom     9
 Full point group                 C1      NOp   1
 RotChk:  IX=0 Diff= 1.69D-03
 Largest Abelian subgroup         C1      NOp   1
 Largest concise Abelian subgroup C1      NOp   1
                         Standard orientation:                         
 ---------------------------------------------------------------------
 Center     Atomic      Atomic             Coordinates (Angstroms)
 Number     Number       Type             X           Y           Z
 ---------------------------------------------------------------------
      1          1           0        1.094685    0.732032   -0.044916
      2          1           0       -1.233911   -0.884193    0.111616
      3          1           0       -1.114175    0.993326    0.162790
      4          6           0       -0.684333    0.027334   -0.064243
      5          8           0        0.669925   -0.125646    0.019496
 ---------------------------------------------------------------------
 Rotational constants (GHZ):         193.6974321          29.9463348          26.1692365
 Leave Link  202 at Thu Mar  7 13:43:52 2024, MaxMem=   104857600 cpu:               0.0 elap:               0.0
 (Enter /opt/g16/l301.exe)
 Standard basis: STO-3G (5D, 7F)
 Ernie: Thresh=  0.10000D-02 Tol=  0.10000D-05 Strict=F.
 There are    13 symmetry adapted cartesian basis functions of A   symmetry.
 There are    13 symmetry adapted basis functions of A   symmetry.
    13 basis functions,    39 primitive gaussians,    13 cartesian basis functions
     9 alpha electrons        8 beta electrons
       nuclear repulsion energy        35.3276044094 Hartrees.
 IExCor=    0 DFT=F Ex=HF Corr=None ExCW=0 ScaHFX=  1.000000
 ScaDFX=  1.000000  1.000000  1.000000  1.000000 ScalE2=  1.000000  1.000000
 IRadAn=      5 IRanWt=     -1 IRanGd=            0 ICorTp=0 IEmpDi=  4
 NAtoms=    5 NActive=    5 NUniq=    5 SFac= 1.00D+00 NAtFMM=   60 NAOKFM=F Big=F
 Integral buffers will be    131072 words long.
 Raffenetti 2 integral format.
 Two-electron integral symmetry is turned on.
 Leave Link  301 at Thu Mar  7 13:43:52 2024, MaxMem=   104857600 cpu:               0.0 elap:               0.0
 (Enter /opt/g16/l402.exe)
 External calculation of energy and first derivatives.
 Running external command "python3 -u ../pes/h3co_pes.py R"
         input file       "/home/jh-li/scratch/g16/Gau-698776.EIn"
         output file      "/home/jh-li/scratch/g16/Gau-698776.EOu"
         message file     "/home/jh-li/scratch/g16/Gau-698776.EMs"
         fchk file        "/home/jh-li/scratch/g16/Gau-698776.EFC"
         mat. el file     "/home/jh-li/scratch/g16/Gau-698776.EUF"
 Recovered energy= -215.294740715     dipole=      0.000000000000      0.000000000000      0.000000000000
 Energy=    -215.294741     NIter=   0.
 Dipole moment=       0.000000       0.000000       0.000000
 Leave Link  402 at Thu Mar  7 13:43:52 2024, MaxMem=   104857600 cpu:               0.0 elap:               0.2
 (Enter /opt/g16/l716.exe)
 Dipole        = 0.00000000D+00 0.00000000D+00 0.00000000D+00
 ***** Axes restored to original set *****
 -------------------------------------------------------------------
 Center     Atomic                   Forces (Hartrees/Bohr)
 Number     Number              X              Y              Z
 -------------------------------------------------------------------
      1        1          -0.000054257    0.000072148    0.000070988
      2        1          -0.000097431    0.000040127    0.000018763
      3        1           0.000013819   -0.000013270    0.000028615
      4        6           0.000089546    0.000001577   -0.000183681
      5        8           0.000050301   -0.000093302    0.000064841
 -------------------------------------------------------------------
 Cartesian Forces:  Max     0.000183681 RMS     0.000074399
 Leave Link  716 at Thu Mar  7 13:43:52 2024, MaxMem=   104857600 cpu:               0.0 elap:               0.0
 (Enter /opt/g16/l103.exe)

 GradGradGradGradGradGradGradGradGradGradGradGradGradGradGradGradGradGrad
 Berny optimization.
 Using GEDIIS/GDIIS optimizer.
 FormGI is forming the generalized inverse of G from B-inverse, IUseBI=4.
 Internal  Forces:  Max     0.000134844 RMS     0.000074079
 Search for a local minimum.
 Step number   3 out of a maximum of   21
 All quantities printed in internal units (Hartrees-Bohrs-Radians)
 RMS Force = .74079D-04 SwitMx=.10000D-02 MixMth= 2
 Mixed Optimization -- En-DIIS/RFO-DIIS
 Swapping is turned off.
 Update second derivatives using D2CorX and points    1    2    3
 DE= -2.28D-06 DEPred=-1.59D-06 R= 1.44D+00
 TightC=F SS=  1.41D+00  RLast= 1.22D-02 DXNew= 5.0454D-01 3.6634D-02
 Trust test= 1.44D+00 RLast= 1.22D-02 DXMaxT set to 3.00D-01
 The second derivative matrix:
                          R1        R2        R3        R4        A1
           R1           0.56539
           R2          -0.00181   0.37368
           R3          -0.00136   0.00169   0.35879
           R4           0.01419   0.00955   0.00212   0.54148
           A1          -0.00729   0.00913   0.00585  -0.02231   0.14069
           A2           0.00492   0.00135   0.00008   0.00768  -0.00611
           A3          -0.00895   0.00870   0.00355  -0.01230   0.00166
           A4           0.00677   0.01713   0.00219   0.02930   0.00365
           D1           0.00459  -0.00223  -0.00143   0.00856  -0.00002
           D2           0.00189  -0.00266  -0.00256   0.01098   0.01288
           D3           0.00018  -0.00429  -0.00192   0.00234   0.00762
                          A2        A3        A4        D1        D2
           A2           0.16262
           A3          -0.00454   0.16971
           A4           0.00713   0.00436   0.19750
           D1           0.00271  -0.00379   0.00170   0.00512
           D2           0.00253   0.00210  -0.00013  -0.00148   0.01349
           D3           0.00057   0.00072  -0.00582  -0.00081  -0.00445
                          D3
           D3           0.01921
 ITU=  1  1  0
     Eigenvalues ---    0.00947   0.01654   0.14393   0.16916   0.19366
     Eigenvalues ---    0.35867   0.37500   0.53794   0.57408
 En-DIIS/RFO-DIIS/Sim-DIIS IScMMF=       -3 using points:     3    2    1
 RFO step:  Lambda=-1.21360332D-06.
 NNeg= 0 NGDIIS= 3 SimSw=  2.50D-03 Rises=F DC= -2.28D-06 SmlDif=  1.00D-05
 NRisDI= 0 DoIntr=F SqrtH=F CThrHd= 10.0 CDAdj=  3.0
 RMS Error=  0.3104775140D-02 NUsed= 3 OKEnD=F EnDIS=F
 InvSVX:  RCond= 2.77D-06 Info=           0 Equed=N FErr=  3.25D-14 BErr=  6.19D-17
 DidBck=F Rises=F RFO-DIIS coefs:    1.72108   -0.64929   -0.07179
 Iteration  1 RMS(Cart)=  0.00230003 RMS(Int)=  0.00000820
 Iteration  2 RMS(Cart)=  0.00000694 RMS(Int)=  0.00000204
 Iteration  3 RMS(Cart)=  0.00000000 RMS(Int)=  0.00000204
 ITry= 1 IFail=0 DXMaxC= 4.63D-03 DCOld= 1.00D+10 DXMaxT= 3.00D-01 DXLimC= 3.00D+00 Rises=F
 Variable       Old X    -DE/DX   Delta X   Delta X   Delta X     New X
                                 (Linear)    (Quad)   (Total)
    R1        1.81274   0.00001  -0.00022   0.00020  -0.00001   1.81273
    R2        2.03867  -0.00007   0.00044  -0.00044   0.00000   2.03867
    R3        2.04357   0.00000   0.00025  -0.00013   0.00012   2.04369
    R4        2.58031  -0.00013  -0.00058   0.00013  -0.00045   2.57986
    A1        2.11536  -0.00007  -0.00143   0.00003  -0.00141   2.11395
    A2        1.98296   0.00007  -0.00055   0.00104   0.00049   1.98345
    A3        2.07308  -0.00001   0.00039  -0.00039   0.00000   2.07309
    A4        1.91228  -0.00013   0.00057  -0.00094  -0.00037   1.91190
    D1        2.61995   0.00000  -0.00360   0.00178  -0.00182   2.61813
    D2       -3.02839   0.00008   0.00787   0.00014   0.00801  -3.02038
    D3       -0.37064   0.00005   0.00425   0.00153   0.00578  -0.36486
         Item               Value     Threshold  Converged?
 Maximum Force            0.000135     0.000450     YES
 RMS     Force            0.000074     0.000300     YES
 Maximum Displacement     0.004628     0.001800     NO 
 RMS     Displacement     0.002300     0.001200     NO 
 Predicted change in Energy=-6.061343D-07
 GradGradGradGradGradGradGradGradGradGradGradGradGradGradGradGradGradGrad

 Leave Link  103 at Thu Mar  7 13:43:52 2024, MaxMem=   104857600 cpu:               0.0 elap:               0.0
 (Enter /opt/g16/l202.exe)
                          Input orientation:                          
 ---------------------------------------------------------------------
 Center     Atomic      Atomic             Coordinates (Angstroms)
 Number     Number       Type             X           Y           Z
 ---------------------------------------------------------------------
      1          1           0       -0.815970   -0.057214   -1.010056
      2          1           0        0.924463    0.138109    1.223631
      3          1           0       -0.955626    0.203428    1.202880
      4          6           0       -0.016169   -0.044241    0.727841
      5          8           0        0.064438    0.003868   -0.634129
 ---------------------------------------------------------------------
                    Distance matrix (angstroms):
                    1          2          3          4          5
     1  H    0.000000
     2  H    2.838417   0.000000
     3  H    2.232605   1.881337   0.000000
     4  C    1.913148   1.078818   1.081472   0.000000
     5  O    0.959255   2.051569   2.110678   1.365202   0.000000
 Stoichiometry    CH3O(2)
 Framework group  C1[X(CH3O)]
 Deg. of freedom     9
 Full point group                 C1      NOp   1
 RotChk:  IX=0 Diff= 1.66D-03
 Largest Abelian subgroup         C1      NOp   1
 Largest concise Abelian subgroup C1      NOp   1
                         Standard orientation:                         
 ---------------------------------------------------------------------
 Center     Atomic      Atomic             Coordinates (Angstroms)
 Number     Number       Type             X           Y           Z
 ---------------------------------------------------------------------
      1          1           0        1.094045    0.732578   -0.041125
      2          1           0       -1.234223   -0.883467    0.114380
      3          1           0       -1.113960    0.993423    0.161848
      4          6           0       -0.684158    0.027182   -0.064492
      5          8           0        0.669886   -0.125703    0.018981
 ---------------------------------------------------------------------
 Rotational constants (GHZ):         193.7090858          29.9551287          26.1762977
 Leave Link  202 at Thu Mar  7 13:43:52 2024, MaxMem=   104857600 cpu:               0.0 elap:               0.0
 (Enter /opt/g16/l301.exe)
 Standard basis: STO-3G (5D, 7F)
 Ernie: Thresh=  0.10000D-02 Tol=  0.10000D-05 Strict=F.
 There are    13 symmetry adapted cartesian basis functions of A   symmetry.
 There are    13 symmetry adapted basis functions of A   symmetry.
    13 basis functions,    39 primitive gaussians,    13 cartesian basis functions
     9 alpha electrons        8 beta electrons
       nuclear repulsion energy        35.3314384290 Hartrees.
 IExCor=    0 DFT=F Ex=HF Corr=None ExCW=0 ScaHFX=  1.000000
 ScaDFX=  1.000000  1.000000  1.000000  1.000000 ScalE2=  1.000000  1.000000
 IRadAn=      5 IRanWt=     -1 IRanGd=            0 ICorTp=0 IEmpDi=  4
 NAtoms=    5 NActive=    5 NUniq=    5 SFac= 1.00D+00 NAtFMM=   60 NAOKFM=F Big=F
 Integral buffers will be    131072 words long.
 Raffenetti 2 integral format.
 Two-electron integral symmetry is turned on.
 Leave Link  301 at Thu Mar  7 13:43:52 2024, MaxMem=   104857600 cpu:               0.0 elap:               0.0
 (Enter /opt/g16/l402.exe)
 External calculation of energy and first derivatives.
 Running external command "python3 -u ../pes/h3co_pes.py R"
         input file       "/home/jh-li/scratch/g16/Gau-698776.EIn"
         output file      "/home/jh-li/scratch/g16/Gau-698776.EOu"
         message file     "/home/jh-li/scratch/g16/Gau-698776.EMs"
         fchk file        "/home/jh-li/scratch/g16/Gau-698776.EFC"
         mat. el file     "/home/jh-li/scratch/g16/Gau-698776.EUF"
 Recovered energy= -215.294741340     dipole=      0.000000000000      0.000000000000      0.000000000000
 Energy=    -215.294741     NIter=   0.
 Dipole moment=       0.000000       0.000000       0.000000
 Leave Link  402 at Thu Mar  7 13:43:53 2024, MaxMem=   104857600 cpu:               0.0 elap:               0.2
 (Enter /opt/g16/l716.exe)
 Dipole        = 0.00000000D+00 0.00000000D+00 0.00000000D+00
 ***** Axes restored to original set *****
 -------------------------------------------------------------------
 Center     Atomic                   Forces (Hartrees/Bohr)
 Number     Number              X              Y              Z
 -------------------------------------------------------------------
      1        1          -0.000044573    0.000011982    0.000016924
      2        1          -0.000034166   -0.000013995   -0.000026469
      3        1           0.000006982   -0.000019614   -0.000011220
      4        6           0.000035926    0.000050353    0.000078065
      5        8           0.000037858   -0.000021399   -0.000057759
 -------------------------------------------------------------------
 Cartesian Forces:  Max     0.000078065 RMS     0.000036686
 Leave Link  716 at Thu Mar  7 13:43:53 2024, MaxMem=   104857600 cpu:               0.0 elap:               0.0
 (Enter /opt/g16/l103.exe)

 GradGradGradGradGradGradGradGradGradGradGradGradGradGradGradGradGradGrad
 Berny optimization.
 Using GEDIIS/GDIIS optimizer.
 FormGI is forming the generalized inverse of G from B-inverse, IUseBI=4.
 Internal  Forces:  Max     0.000047023 RMS     0.000027346
 Search for a local minimum.
 Step number   4 out of a maximum of   21
 All quantities printed in internal units (Hartrees-Bohrs-Radians)
 RMS Force = .27346D-04 SwitMx=.10000D-02 MixMth= 2
 Mixed Optimization -- En-DIIS/RFO-DIIS
 Swapping is turned off.
 Update second derivatives using D2CorX and points    1    2    3    4
 DE= -6.25D-07 DEPred=-6.06D-07 R= 1.03D+00
 Trust test= 1.03D+00 RLast= 1.02D-02 DXMaxT set to 3.00D-01
 The second derivative matrix:
                          R1        R2        R3        R4        A1
           R1           0.56833
           R2          -0.00112   0.36783
           R3          -0.00188   0.00083   0.35881
           R4           0.02333   0.00225  -0.00137   0.56281
           A1          -0.00592   0.00464   0.00401  -0.01642   0.14738
           A2           0.00614   0.00197  -0.00054   0.01296  -0.00588
           A3          -0.00983   0.00467   0.00240  -0.01600   0.00223
           A4           0.01187   0.00702  -0.00024   0.02901  -0.00102
           D1           0.00503  -0.00058  -0.00081   0.00934  -0.00093
           D2           0.00007   0.00023  -0.00140   0.00538   0.00849
           D3           0.00046  -0.00355  -0.00238   0.00596   0.00862
                          A2        A3        A4        D1        D2
           A2           0.15991
           A3          -0.00770   0.16684
           A4           0.01019  -0.00317   0.18542
           D1           0.00469  -0.00240   0.00465   0.00440
           D2           0.00069   0.00114   0.00187  -0.00044   0.01616
           D3          -0.00230  -0.00129  -0.00359   0.00056  -0.00637
                          D3
           D3           0.01651
 ITU=  0  1  1  0
     Eigenvalues ---    0.00877   0.01665   0.14755   0.16562   0.18666
     Eigenvalues ---    0.35877   0.36816   0.54297   0.59282
 En-DIIS/RFO-DIIS/Sim-DIIS IScMMF=       -3 using points:     4    3    2    1
 RFO step:  Lambda=-7.12097465D-08.
 NNeg= 0 NGDIIS= 4 SimSw=  2.50D-01 Rises=F DC= -6.25D-07 SmlDif=  1.00D-05
 NRisDI= 0 DoIntr=F SqrtH=F CThrHd= 10.0 CDAdj=  3.0
 RMS Error=  0.5847078476D-03 NUsed= 4 OKEnD=F EnDIS=F
 InvSVX:  RCond= 1.08D-07 Info=           0 Equed=N FErr=  3.04D-13 BErr=  3.14D-17
 DidBck=F Rises=F RFO-DIIS coefs:    1.72203   -1.19925    0.45911    0.01812
 Iteration  1 RMS(Cart)=  0.00045371 RMS(Int)=  0.00000133
 Iteration  2 RMS(Cart)=  0.00000040 RMS(Int)=  0.00000127
 ITry= 1 IFail=0 DXMaxC= 9.18D-04 DCOld= 1.00D+10 DXMaxT= 3.00D-01 DXLimC= 3.00D+00 Rises=F
 Variable       Old X    -DE/DX   Delta X   Delta X   Delta X     New X
                                 (Linear)    (Quad)   (Total)
    R1        1.81273   0.00003   0.00014  -0.00007   0.00007   1.81279
    R2        2.03867  -0.00005  -0.00022   0.00007  -0.00015   2.03852
    R3        2.04369  -0.00001  -0.00006   0.00002  -0.00004   2.04365
    R4        2.57986   0.00004   0.00008   0.00003   0.00011   2.57997
    A1        2.11395   0.00001  -0.00017   0.00039   0.00023   2.11418
    A2        1.98345   0.00001   0.00073  -0.00045   0.00028   1.98373
    A3        2.07309  -0.00002  -0.00023   0.00033   0.00010   2.07318
    A4        1.91190  -0.00004  -0.00038   0.00006  -0.00032   1.91159
    D1        2.61813   0.00002   0.00094   0.00046   0.00140   2.61953
    D2       -3.02038   0.00001   0.00091  -0.00015   0.00075  -3.01963
    D3       -0.36486   0.00002   0.00154   0.00050   0.00204  -0.36282
         Item               Value     Threshold  Converged?
 Maximum Force            0.000047     0.000450     YES
 RMS     Force            0.000027     0.000300     YES
 Maximum Displacement     0.000918     0.001800     YES
 RMS     Displacement     0.000454     0.001200     YES
 Predicted change in Energy=-2.792756D-08
 Optimization completed.
    -- Stationary point found.
                           ----------------------------
                           !   Optimized Parameters   !
                           ! (Angstroms and Degrees)  !
 --------------------------                            --------------------------
 ! Name  Definition              Value          Derivative Info.                !
 --------------------------------------------------------------------------------
 ! R1    R(1,5)                  0.9593         -DE/DX =    0.0                 !
 ! R2    R(2,4)                  1.0788         -DE/DX =    0.0                 !
 ! R3    R(3,4)                  1.0815         -DE/DX =    0.0                 !
 ! R4    R(4,5)                  1.3652         -DE/DX =    0.0                 !
 ! A1    A(2,4,3)              121.1204         -DE/DX =    0.0                 !
 ! A2    A(2,4,5)              113.6433         -DE/DX =    0.0                 !
 ! A3    A(3,4,5)              118.7791         -DE/DX =    0.0                 !
 ! A4    A(1,5,4)              109.544          -DE/DX =    0.0                 !
 ! D1    D(5,3,4,2)            150.0078         -DE/DX =    0.0                 !
 ! D2    D(2,4,5,1)           -173.0551         -DE/DX =    0.0                 !
 ! D3    D(3,4,5,1)            -20.9048         -DE/DX =    0.0                 !
 --------------------------------------------------------------------------------
 Largest change from initial coordinates is atom    1       0.002 Angstoms.
 GradGradGradGradGradGradGradGradGradGradGradGradGradGradGradGradGradGrad

 Leave Link  103 at Thu Mar  7 13:43:53 2024, MaxMem=   104857600 cpu:               0.0 elap:               0.0
 (Enter /opt/g16/l202.exe)
                          Input orientation:                          
 ---------------------------------------------------------------------
 Center     Atomic      Atomic             Coordinates (Angstroms)
 Number     Number       Type             X           Y           Z
 ---------------------------------------------------------------------
      1          1           0       -0.815970   -0.057214   -1.010056
      2          1           0        0.924463    0.138109    1.223631
      3          1           0       -0.955626    0.203428    1.202880
      4          6           0       -0.016169   -0.044241    0.727841
      5          8           0        0.064438    0.003868   -0.634129
 ---------------------------------------------------------------------
                    Distance matrix (angstroms):
                    1          2          3          4          5
     1  H    0.000000
     2  H    2.838417   0.000000
     3  H    2.232605   1.881337   0.000000
     4  C    1.913148   1.078818   1.081472   0.000000
     5  O    0.959255   2.051569   2.110678   1.365202   0.000000
 Stoichiometry    CH3O(2)
 Framework group  C1[X(CH3O)]
 Deg. of freedom     9
 Full point group                 C1      NOp   1
 RotChk:  IX=0 Diff= 3.37D-15
 Largest Abelian subgroup         C1      NOp   1
 Largest concise Abelian subgroup C1      NOp   1
                         Standard orientation:                         
 ---------------------------------------------------------------------
 Center     Atomic      Atomic             Coordinates (Angstroms)
 Number     Number       Type             X           Y           Z
 ---------------------------------------------------------------------
      1          1           0        1.094045    0.732578   -0.041125
      2          1           0       -1.234223   -0.883467    0.114380
      3          1           0       -1.113960    0.993423    0.161848
      4          6           0       -0.684158    0.027182   -0.064492
      5          8           0        0.669886   -0.125703    0.018981
 ---------------------------------------------------------------------
 Rotational constants (GHZ):         193.7090858          29.9551287          26.1762977
 Leave Link  202 at Thu Mar  7 13:43:53 2024, MaxMem=   104857600 cpu:               0.0 elap:               0.0
 (Enter /opt/g16/l601.exe)
 Leave Link  601 at Thu Mar  7 13:43:53 2024, MaxMem=   104857600 cpu:               0.0 elap:               0.0
 (Enter /opt/g16/l9999.exe)
 Unable to Open any file for archive entry.
 1\1\GINC-DESKTOP-1D9QDE1\FOpt\External='python3 -u ../pes/h3co_pes.py'
 \ZDO\C1H3O1(2)\JH-LI\07-Mar-2024\0\\#p external="python3 -u ../pes/h3c
 o_pes.py" opt=nomicro\\CH2OH\\0,2\H,-0.8159695793,-0.0572144676,-1.010
 055547\H,0.9244627876,0.138108654,1.2236309226\H,-0.9556258305,0.20342
 83744,1.2028804067\C,-0.0161692979,-0.0442406119,0.7278411889\O,0.0644
 383479,0.0038677342,-0.634129239\\Version=ES64L-G16RevC.01\HF=-215.294
 7413\S2=0.\S2-1=0.\S2A=0.\RMSD=0.000e+00\RMSF=3.669e-05\Dipole=0.,0.,0
 .\PG=C01 [X(C1H3O1)]\\@
 The archive entry for this job was punched.


 THE TEST OF A FIRST RATE INTELLIGENCE IS THE ABILITY TO HOLD TWO OPPOSED
 IDEAS IN THE MIND AT THE SAME TIME, AND STILL RETAIN THE ABILITY TO FUNCTION.
 ONE SHOULD, FOR EXAMPLE, BE ABLE TO SEE THAT THINGS ARE HOPELESS AND YET BE
 DETERMINED TO MAKE THEM OTHERWISE.

                                                       -- F. SCOTT FITZGERALD
 Job cpu time:       0 days  0 hours  0 minutes  0.9 seconds.
 Elapsed time:       0 days  0 hours  0 minutes  1.4 seconds.
 File lengths (MBytes):  RWF=      6 Int=      0 D2E=      0 Chk=      1 Scr=      1
 Normal termination of Gaussian 16 at Thu Mar  7 13:43:53 2024.
 Initial command:
 /opt/g16/l1.exe "/home/jh-li/scratch/g16/Gau-698773.inp" -scrdir="/home/jh-li/scratch/g16/"
 Entering Link 1 = /opt/g16/l1.exe PID=    698816.
  
 Copyright (c) 1988-2019, Gaussian, Inc.  All Rights Reserved.
  
 This is part of the Gaussian(R) 16 program.  It is based on
 the Gaussian(R) 09 system (copyright 2009, Gaussian, Inc.),
 the Gaussian(R) 03 system (copyright 2003, Gaussian, Inc.),
 the Gaussian(R) 98 system (copyright 1998, Gaussian, Inc.),
 the Gaussian(R) 94 system (copyright 1995, Gaussian, Inc.),
 the Gaussian 92(TM) system (copyright 1992, Gaussian, Inc.),
 the Gaussian 90(TM) system (copyright 1990, Gaussian, Inc.),
 the Gaussian 88(TM) system (copyright 1988, Gaussian, Inc.),
 the Gaussian 86(TM) system (copyright 1986, Carnegie Mellon
 University), and the Gaussian 82(TM) system (copyright 1983,
 Carnegie Mellon University). Gaussian is a federally registered
 trademark of Gaussian, Inc.
  
 This software contains proprietary and confidential information,
 including trade secrets, belonging to Gaussian, Inc.
  
 This software is provided under written license and may be
 used, copied, transmitted, or stored only in accord with that
 written license.
  
 The following legend is applicable only to US Government
 contracts under FAR:
  
                    RESTRICTED RIGHTS LEGEND
  
 Use, reproduction and disclosure by the US Government is
 subject to restrictions as set forth in subparagraphs (a)
 and (c) of the Commercial Computer Software - Restricted
 Rights clause in FAR 52.227-19.
  
 Gaussian, Inc.
 340 Quinnipiac St., Bldg. 40, Wallingford CT 06492
  
  
 ---------------------------------------------------------------
 Warning -- This program may not be used in any manner that
 competes with the business of Gaussian, Inc. or will provide
 assistance to any competitor of Gaussian, Inc.  The licensee
 of this program is prohibited from giving any competitor of
 Gaussian, Inc. access to this program.  By using this program,
 the user acknowledges that Gaussian, Inc. is engaged in the
 business of creating and licensing software in the field of
 computational chemistry and represents and warrants to the
 licensee that it is not a competitor of Gaussian, Inc. and that
 it will not use this program in any manner prohibited above.
 ---------------------------------------------------------------
  

 Cite this work as:
 Gaussian 16, Revision C.01,
 M. J. Frisch, G. W. Trucks, H. B. Schlegel, G. E. Scuseria, 
 M. A. Robb, J. R. Cheeseman, G. Scalmani, V. Barone, 
 G. A. Petersson, H. Nakatsuji, X. Li, M. Caricato, A. V. Marenich, 
 J. Bloino, B. G. Janesko, R. Gomperts, B. Mennucci, H. P. Hratchian, 
 J. V. Ortiz, A. F. Izmaylov, J. L. Sonnenberg, D. Williams-Young, 
 F. Ding, F. Lipparini, F. Egidi, J. Goings, B. Peng, A. Petrone, 
 T. Henderson, D. Ranasinghe, V. G. Zakrzewski, J. Gao, N. Rega, 
 G. Zheng, W. Liang, M. Hada, M. Ehara, K. Toyota, R. Fukuda, 
 J. Hasegawa, M. Ishida, T. Nakajima, Y. Honda, O. Kitao, H. Nakai, 
 T. Vreven, K. Throssell, J. A. Montgomery, Jr., J. E. Peralta, 
 F. Ogliaro, M. J. Bearpark, J. J. Heyd, E. N. Brothers, K. N. Kudin, 
 V. N. Staroverov, T. A. Keith, R. Kobayashi, J. Normand, 
 K. Raghavachari, A. P. Rendell, J. C. Burant, S. S. Iyengar, 
 J. Tomasi, M. Cossi, J. M. Millam, M. Klene, C. Adamo, R. Cammi, 
 J. W. Ochterski, R. L. Martin, K. Morokuma, O. Farkas, 
 J. B. Foresman, and D. J. Fox, Gaussian, Inc., Wallingford CT, 2019.
 
 ******************************************
 Gaussian 16:  ES64L-G16RevC.01  3-Jul-2019
                 7-Mar-2024 
 ******************************************
 %nproc=1
 Will use up to    1 processors via shared memory.
 %chk=CH2OH-opt-freq.chk
 --------------------------------------------------------------
 #p external="python3 -u ../pes/h3co_pes.py" freq geom=allcheck
 --------------------------------------------------------------
 1/10=4,18=10,29=7,30=1,38=1/1,3;
 2/12=2,40=1/2;
 3/11=9,14=-4,25=1,30=1,41=9900000,43=2,71=2,140=1/1;
 4/20=17,22=2,24=3,113=1,114=1/2;
 6/7=2,8=2,9=2,10=2/1;
 7/8=1,25=1,44=-1/16;
 1/10=4,18=10,30=1/3;
 99//99;
 Leave Link    1 at Thu Mar  7 13:43:53 2024, MaxMem=           0 cpu:               0.0 elap:               0.0
 (Enter /opt/g16/l101.exe)
 Structure from the checkpoint file:  "CH2OH-opt-freq.chk"
 -----
 CH2OH
 -----
 Charge =  0 Multiplicity = 2
 Redundant internal coordinates found in file.  (old form).
 H,0,-0.8159695793,-0.0572144676,-1.010055547
 H,0,0.9244627876,0.138108654,1.2236309226
 H,0,-0.9556258305,0.2034283744,1.2028804067
 C,0,-0.0161692979,-0.0442406119,0.7278411889
 O,0,0.0644383479,0.0038677342,-0.634129239
 Recover connectivity data from disk.
 ITRead=  0  0  0  0  0
 MicOpt= -1 -1 -1 -1 -1
 NAtoms=      5 NQM=        5 NQMF=       0 NMMI=      0 NMMIF=      0
                NMic=       0 NMicF=      0.
                    Isotopes and Nuclear Properties:
 (Nuclear quadrupole moments (NQMom) in fm**2, nuclear magnetic moments (NMagM)
  in nuclear magnetons)

  Atom         1           2           3           4           5
 IAtWgt=           1           1           1          12          16
 AtmWgt=   1.0078250   1.0078250   1.0078250  12.0000000  15.9949146
 NucSpn=           1           1           1           0           0
 AtZEff=   1.0000000   1.0000000   1.0000000   3.6000000   5.6000000
 NQMom=    0.0000000   0.0000000   0.0000000   0.0000000   0.0000000
 NMagM=    2.7928460   2.7928460   2.7928460   0.0000000   0.0000000
 AtZNuc=   1.0000000   1.0000000   1.0000000   6.0000000   8.0000000
 Leave Link  101 at Thu Mar  7 13:43:53 2024, MaxMem=   104857600 cpu:               0.1 elap:               0.1
 (Enter /opt/g16/l103.exe)

 GradGradGradGradGradGradGradGradGradGradGradGradGradGradGradGradGradGrad
 Berny optimization.
 Initialization pass.
 Trust Radius=3.00D-01 FncErr=1.00D-07 GrdErr=1.00D-07 EigMax=2.50D+02 EigMin=1.00D-04
 Number of steps in this run=      2 maximum allowed number of steps=      2.
 GradGradGradGradGradGradGradGradGradGradGradGradGradGradGradGradGradGrad

 Leave Link  103 at Thu Mar  7 13:43:53 2024, MaxMem=   104857600 cpu:               0.0 elap:               0.0
 (Enter /opt/g16/l202.exe)
                          Input orientation:                          
 ---------------------------------------------------------------------
 Center     Atomic      Atomic             Coordinates (Angstroms)
 Number     Number       Type             X           Y           Z
 ---------------------------------------------------------------------
      1          1           0       -0.815970   -0.057214   -1.010056
      2          1           0        0.924463    0.138109    1.223631
      3          1           0       -0.955626    0.203428    1.202880
      4          6           0       -0.016169   -0.044241    0.727841
      5          8           0        0.064438    0.003868   -0.634129
 ---------------------------------------------------------------------
                    Distance matrix (angstroms):
                    1          2          3          4          5
     1  H    0.000000
     2  H    2.838417   0.000000
     3  H    2.232605   1.881337   0.000000
     4  C    1.913148   1.078818   1.081472   0.000000
     5  O    0.959255   2.051569   2.110678   1.365202   0.000000
 Stoichiometry    CH3O(2)
 Framework group  C1[X(CH3O)]
 Deg. of freedom     9
 Full point group                 C1      NOp   1
 RotChk:  IX=0 Diff= 3.25D-15
 Largest Abelian subgroup         C1      NOp   1
 Largest concise Abelian subgroup C1      NOp   1
                         Standard orientation:                         
 ---------------------------------------------------------------------
 Center     Atomic      Atomic             Coordinates (Angstroms)
 Number     Number       Type             X           Y           Z
 ---------------------------------------------------------------------
      1          1           0        1.094045    0.732578   -0.041125
      2          1           0       -1.234223   -0.883467    0.114380
      3          1           0       -1.113960    0.993423    0.161848
      4          6           0       -0.684158    0.027182   -0.064492
      5          8           0        0.669886   -0.125703    0.018981
 ---------------------------------------------------------------------
 Rotational constants (GHZ):         193.7090858          29.9551287          26.1762977
 Leave Link  202 at Thu Mar  7 13:43:53 2024, MaxMem=   104857600 cpu:               0.0 elap:               0.0
 (Enter /opt/g16/l301.exe)
 Standard basis: STO-3G (5D, 7F)
 Ernie: Thresh=  0.10000D-02 Tol=  0.10000D-05 Strict=F.
 There are    13 symmetry adapted cartesian basis functions of A   symmetry.
 There are    13 symmetry adapted basis functions of A   symmetry.
    13 basis functions,    39 primitive gaussians,    13 cartesian basis functions
     9 alpha electrons        8 beta electrons
       nuclear repulsion energy        35.3314384290 Hartrees.
 IExCor=    0 DFT=F Ex=HF Corr=None ExCW=0 ScaHFX=  1.000000
 ScaDFX=  1.000000  1.000000  1.000000  1.000000 ScalE2=  1.000000  1.000000
 IRadAn=      5 IRanWt=     -1 IRanGd=            0 ICorTp=0 IEmpDi=  4
 NAtoms=    5 NActive=    5 NUniq=    5 SFac= 1.00D+00 NAtFMM=   60 NAOKFM=F Big=F
 Integral buffers will be    131072 words long.
 Raffenetti 2 integral format.
 Two-electron integral symmetry is turned on.
 Leave Link  301 at Thu Mar  7 13:43:53 2024, MaxMem=   104857600 cpu:               0.0 elap:               0.0
 (Enter /opt/g16/l402.exe)
 External calculation of energy, first and second derivatives.
 Running external command "python3 -u ../pes/h3co_pes.py R"
         input file       "/home/jh-li/scratch/g16/Gau-698816.EIn"
         output file      "/home/jh-li/scratch/g16/Gau-698816.EOu"
         message file     "/home/jh-li/scratch/g16/Gau-698816.EMs"
         fchk file        "/home/jh-li/scratch/g16/Gau-698816.EFC"
         mat. el file     "/home/jh-li/scratch/g16/Gau-698816.EUF"
 Recovered energy= -215.294741340     dipole=      0.000000000000      0.000000000000      0.000000000000
 Energy=    -215.294741     NIter=   0.
 Dipole moment=       0.000000       0.000000       0.000000
 Leave Link  402 at Thu Mar  7 13:43:54 2024, MaxMem=   104857600 cpu:               0.0 elap:               0.8
 (Enter /opt/g16/l601.exe)
 Leave Link  601 at Thu Mar  7 13:43:54 2024, MaxMem=   104857600 cpu:               0.0 elap:               0.0
 (Enter /opt/g16/l716.exe)
 Dipole        = 0.00000000D+00 0.00000000D+00 0.00000000D+00
 Full mass-weighted force constant matrix:
 Low frequencies ---  -13.5784   -0.2463   -0.2236    1.0005   11.6527   37.3867
 Low frequencies ---  428.6554  514.0794 1093.5879
 Diagonal vibrational polarizability:
        0.0000000       0.0000000       0.0000000
 Harmonic frequencies (cm**-1), IR intensities (KM/Mole), Raman scattering
 activities (A**4/AMU), depolarization ratios for plane and unpolarized
 incident light, reduced masses (AMU), force constants (mDyne/A),
 and normal coordinates:
                      1                      2                      3
                      A                      A                      A
 Frequencies --    428.6541               514.0794              1093.5878
 Red. masses --      1.1658                 1.1858                 1.0869
 Frc consts  --      0.1262                 0.1846                 0.7659
 IR Inten    --      0.0000                 0.0000                 0.0000
  Atom  AN      X      Y      Z        X      Y      Z        X      Y      Z
     1   1    -0.03   0.07   0.75    -0.04   0.05   0.43     0.57  -0.31   0.06
     2   1    -0.06   0.03   0.07     0.07   0.10   0.78     0.51  -0.23   0.09
     3   1    -0.02   0.13  -0.63     0.10  -0.06   0.40    -0.47  -0.14  -0.06
     4   6     0.00  -0.02   0.08    -0.01  -0.00  -0.13     0.02   0.06   0.00
     5   8     0.00  -0.00  -0.07    -0.00  -0.00  -0.01    -0.05  -0.00  -0.01
                      4                      5                      6
                      A                      A                      A
 Frequencies --   1202.3564              1370.6055              1502.9800
 Red. masses --      5.7372                 1.2877                 1.1203
 Frc consts  --      4.8867                 1.4252                 1.4910
 IR Inten    --      0.0000                 0.0000                 0.0000
  Atom  AN      X      Y      Z        X      Y      Z        X      Y      Z
     1   1    -0.14  -0.08  -0.01     0.74  -0.30   0.05    -0.05   0.02   0.01
     2   1     0.20   0.05  -0.06    -0.42   0.09  -0.04     0.58  -0.40  -0.06
     3   1     0.74   0.02   0.03     0.38   0.07   0.06     0.62   0.32  -0.05
     4   6     0.45  -0.10   0.02    -0.06  -0.11  -0.00    -0.10   0.01  -0.00
     5   8    -0.39   0.07  -0.02     0.00   0.09  -0.00     0.00  -0.00   0.01
                      7                      8                      9
                      A                      A                      A
 Frequencies --   3132.2023              3269.1717              3845.3311
 Red. masses --      1.0435                 1.1239                 1.0657
 Frc consts  --      6.0320                 7.0772                 9.2840
 IR Inten    --      0.0000                 0.0000                 0.0000
  Atom  AN      X      Y      Z        X      Y      Z        X      Y      Z
     1   1     0.00   0.01   0.00    -0.00  -0.02   0.00     0.46   0.88  -0.06
     2   1    -0.30  -0.53   0.08     0.40   0.66  -0.13     0.01   0.01  -0.00
     3   1    -0.30   0.71   0.15    -0.24   0.54   0.13     0.01   0.01   0.00
     4   6     0.05  -0.02  -0.02    -0.01  -0.10   0.00     0.00  -0.00   0.00
     5   8    -0.00  -0.00  -0.00     0.00   0.00  -0.00    -0.03  -0.05   0.00

 -------------------
 - Thermochemistry -
 -------------------
 Temperature   298.150 Kelvin.  Pressure   1.00000 Atm.
 Atom     1 has atomic number  1 and mass   1.00783
 Atom     2 has atomic number  1 and mass   1.00783
 Atom     3 has atomic number  1 and mass   1.00783
 Atom     4 has atomic number  6 and mass  12.00000
 Atom     5 has atomic number  8 and mass  15.99491
 Molecular mass:    31.01839 amu.
 Principal axes and moments of inertia in atomic units:
                           1         2         3
     Eigenvalues --     9.31676  60.24815  68.94562
           X            0.99838   0.05253  -0.02204
           Y           -0.05237   0.99860   0.00776
           Z            0.02242  -0.00660   0.99973
 This molecule is an asymmetric top.
 Rotational symmetry number  1.
 Rotational temperatures (Kelvin)      9.29657     1.43762     1.25626
 Rotational constants (GHZ):         193.70909    29.95513    26.17630
 Zero-point vibrational energy      97848.4 (Joules/Mol)
                                   23.38632 (Kcal/Mol)
 Warning -- explicit consideration of   2 degrees of freedom as
           vibrations may cause significant error
 Vibrational temperatures:    616.74   739.65  1573.43  1729.92  1972.00
          (Kelvin)           2162.45  4506.54  4703.61  5532.57
 
 Zero-point correction=                           0.037268 (Hartree/Particle)
 Thermal correction to Energy=                    0.040653
 Thermal correction to Enthalpy=                  0.041597
 Thermal correction to Gibbs Free Energy=         0.014263
 Sum of electronic and zero-point Energies=           -215.257473
 Sum of electronic and thermal Energies=              -215.254088
 Sum of electronic and thermal Enthalpies=            -215.253144
 Sum of electronic and thermal Free Energies=         -215.280478
 
                     E (Thermal)             CV                S
                      KCal/Mol        Cal/Mol-Kelvin    Cal/Mol-Kelvin
 Total                   25.510              9.268             57.529
 Electronic               0.000              0.000              1.377
 Translational            0.889              2.981             36.229
 Rotational               0.889              2.981             18.299
 Vibrational             23.733              3.307              1.624
 Vibration     1          0.790              1.408              0.863
 Vibration     2          0.869              1.219              0.624
                       Q            Log10(Q)             Ln(Q)
 Total Bot       0.275027D-06         -6.560624        -15.106396
 Total V=0       0.381652D+11         10.581668         24.365190
 Vib (Bot)       0.909410D-17        -17.041240        -39.238906
 Vib (Bot)    1  0.406904D+00         -0.390508         -0.899177
 Vib (Bot)    2  0.315687D+00         -0.500744         -1.153005
 Vib (V=0)       0.126198D+01          0.101052          0.232680
 Vib (V=0)    1  0.114465D+01          0.058672          0.135097
 Vib (V=0)    2  0.109132D+01          0.037952          0.087387
 Electronic      0.200000D+01          0.301030          0.693147
 Translational   0.679020D+07          6.831883         15.730991
 Rotational      0.222691D+04          3.347703          7.708372
 ***** Axes restored to original set *****
 -------------------------------------------------------------------
 Center     Atomic                   Forces (Hartrees/Bohr)
 Number     Number              X              Y              Z
 -------------------------------------------------------------------
      1        1          -0.000044573    0.000011982    0.000016924
      2        1          -0.000034166   -0.000013995   -0.000026469
      3        1           0.000006982   -0.000019614   -0.000011220
      4        6           0.000035926    0.000050353    0.000078065
      5        8           0.000037858   -0.000021399   -0.000057759
 -------------------------------------------------------------------
 Cartesian Forces:  Max     0.000078065 RMS     0.000036686
 Force constants in Cartesian coordinates: 
                1             2             3             4             5 
      1  0.447401D+00
      2  0.307083D-01  0.723838D-02
      3  0.179960D+00  0.116117D-01  0.136031D+00
      4  0.208447D-02 -0.563747D-04  0.197522D-02  0.293052D+00
      5  0.132591D-02  0.323316D-02  0.348886D-03  0.480987D-01  0.150700D-01
      6  0.265117D-03 -0.811694D-03 -0.617683D-02  0.121975D+00  0.269502D-01
      7  0.253304D-02 -0.996895D-03 -0.117796D-03 -0.125909D-01  0.715364D-02
      8  0.658446D-03 -0.122897D-02 -0.126344D-02 -0.561419D-02  0.760082D-03
      9  0.398143D-02  0.927988D-04  0.258569D-02 -0.118118D-01  0.304312D-02
     10 -0.230781D-02  0.167588D-02 -0.451463D-01 -0.290761D+00 -0.586344D-01
     11 -0.190027D-02 -0.143220D-02 -0.951316D-03 -0.437825D-01 -0.165570D-01
     12  0.627453D-02  0.204252D-02 -0.267148D-01 -0.115173D+00 -0.292586D-01
     13 -0.449716D+00 -0.313319D-01 -0.136683D+00  0.822041D-02  0.205571D-02
     14 -0.307910D-01 -0.781289D-02 -0.974641D-02  0.135779D-02 -0.251112D-02
     15 -0.190476D+00 -0.129347D-01 -0.105728D+00  0.302252D-02 -0.108800D-02
                6             7             8             9            10 
      6  0.124528D+00
      7  0.126666D-01  0.286825D+00
      8  0.196642D-02 -0.654241D-01  0.206986D-01
      9  0.758733D-02 -0.112266D+00  0.326078D-01  0.116367D+00
     10 -0.100481D+00 -0.282845D+00  0.756809D-01  0.904209D-01  0.674551D+00
     11 -0.224300D-01  0.594285D-01 -0.230834D-01 -0.269528D-01 -0.168269D-01
     12 -0.100386D+00  0.101527D+00 -0.333493D-01 -0.984442D-01  0.158934D-01
     13 -0.344385D-01  0.607090D-02 -0.529615D-02  0.296948D-01 -0.986405D-01
     14 -0.567532D-02 -0.165536D-03  0.284890D-02 -0.879128D-02 -0.189403D-02
     15 -0.255619D-01 -0.180606D-02  0.358621D-04 -0.281020D-01  0.393266D-01
               11            12            13            14            15 
     11  0.457327D-01
     12  0.422987D-01  0.567976D+00
     13  0.307684D-02 -0.852495D-02  0.534076D+00
     14 -0.464755D-02  0.182733D-01  0.314935D-01  0.121222D-01
     15  0.804029D-02 -0.342404D+00  0.149941D+00  0.594118D-02  0.501787D+00
 Leave Link  716 at Thu Mar  7 13:43:54 2024, MaxMem=   104857600 cpu:               0.0 elap:               0.0
 (Enter /opt/g16/l103.exe)

 GradGradGradGradGradGradGradGradGradGradGradGradGradGradGradGradGradGrad
 Berny optimization.
 Search for a local minimum.
 Step number   1 out of a maximum of    2
 All quantities printed in internal units (Hartrees-Bohrs-Radians)
 Second derivative matrix not updated -- analytic derivatives used.
 The second derivative matrix:
                          X1        Y1        Z1        X2        Y2
           X1           0.44740
           Y1           0.03071   0.00724
           Z1           0.17996   0.01161   0.13603
           X2           0.00208  -0.00006   0.00198   0.29305
           Y2           0.00133   0.00323   0.00035   0.04810   0.01507
           Z2           0.00027  -0.00081  -0.00618   0.12197   0.02695
           X3           0.00253  -0.00100  -0.00012  -0.01259   0.00715
           Y3           0.00066  -0.00123  -0.00126  -0.00561   0.00076
           Z3           0.00398   0.00009   0.00259  -0.01181   0.00304
           X4          -0.00231   0.00168  -0.04515  -0.29076  -0.05863
           Y4          -0.00190  -0.00143  -0.00095  -0.04378  -0.01656
           Z4           0.00627   0.00204  -0.02671  -0.11517  -0.02926
           X5          -0.44972  -0.03133  -0.13668   0.00822   0.00206
           Y5          -0.03079  -0.00781  -0.00975   0.00136  -0.00251
           Z5          -0.19048  -0.01293  -0.10573   0.00302  -0.00109
                          Z2        X3        Y3        Z3        X4
           Z2           0.12453
           X3           0.01267   0.28683
           Y3           0.00197  -0.06542   0.02070
           Z3           0.00759  -0.11227   0.03261   0.11637
           X4          -0.10048  -0.28285   0.07568   0.09042   0.67455
           Y4          -0.02243   0.05943  -0.02308  -0.02695  -0.01683
           Z4          -0.10039   0.10153  -0.03335  -0.09844   0.01589
           X5          -0.03444   0.00607  -0.00530   0.02969  -0.09864
           Y5          -0.00568  -0.00017   0.00285  -0.00879  -0.00189
           Z5          -0.02556  -0.00181   0.00004  -0.02810   0.03933
                          Y4        Z4        X5        Y5        Z5
           Y4           0.04573
           Z4           0.04230   0.56798
           X5           0.00308  -0.00852   0.53408
           Y5          -0.00465   0.01827   0.03149   0.01212
           Z5           0.00804  -0.34240   0.14994   0.00594   0.50179
 ITU=  0
     Eigenvalues ---    0.01178   0.02751   0.05397   0.10926   0.16397
     Eigenvalues ---    0.37149   0.75290   0.87211   1.04420
 Angle between quadratic step and forces=  66.34 degrees.
 Linear search not attempted -- first point.
 B after Tr=     0.000088   -0.000260   -0.000024
         Rot=    1.000000    0.000138    0.000007    0.000075 Ang=   0.02 deg.
 Variable       Old X    -DE/DX   Delta X   Delta X   Delta X     New X
                                 (Linear)    (Quad)   (Total)
    X1       -1.54196  -0.00004   0.00000  -0.00037  -0.00027  -1.54223
    Y1       -0.10812   0.00001   0.00000   0.00161   0.00106  -0.10706
    Z1       -1.90873   0.00002   0.00000   0.00044   0.00043  -1.90830
    X2        1.74698  -0.00003   0.00000   0.00004   0.00013   1.74711
    Y2        0.26099  -0.00001   0.00000   0.00008   0.00019   0.26118
    Z2        2.31233  -0.00003   0.00000   0.00017   0.00009   2.31242
    X3       -1.80587   0.00001   0.00000  -0.00044  -0.00032  -1.80619
    Y3        0.38442  -0.00002   0.00000  -0.00143  -0.00079   0.38363
    Z3        2.27311  -0.00001   0.00000  -0.00020  -0.00036   2.27276
    X4       -0.03056   0.00004   0.00000   0.00017   0.00022  -0.03033
    Y4       -0.08360   0.00005   0.00000   0.00091   0.00103  -0.08257
    Z4        1.37542   0.00008   0.00000   0.00002   0.00002   1.37544
    X5        0.12177   0.00004   0.00000   0.00013   0.00023   0.12200
    Y5        0.00731  -0.00002   0.00000  -0.00088  -0.00149   0.00582
    Z5       -1.19833  -0.00006   0.00000  -0.00016  -0.00019  -1.19852
         Item               Value     Threshold  Converged?
 Maximum Force            0.000078     0.000450     YES
 RMS     Force            0.000037     0.000300     YES
 Maximum Displacement     0.001490     0.001800     YES
 RMS     Displacement     0.000617     0.001200     YES
 Predicted change in Energy=-7.731340D-08
 Optimization completed.
    -- Stationary point found.
 GradGradGradGradGradGradGradGradGradGradGradGradGradGradGradGradGradGrad

 Leave Link  103 at Thu Mar  7 13:43:54 2024, MaxMem=   104857600 cpu:               0.0 elap:               0.0
 (Enter /opt/g16/l9999.exe)
 Unable to Open any file for archive entry.
 1\1\GINC-DESKTOP-1D9QDE1\Freq\External='python3 -u ../pes/h3co_pes.py'
 \ZDO\C1H3O1(2)\JH-LI\07-Mar-2024\0\\#p external="python3 -u ../pes/h3c
 o_pes.py" freq geom=allcheck\\CH2OH\\0,2\H,-0.8159695793,-0.0572144676
 ,-1.010055547\H,0.9244627876,0.138108654,1.2236309226\H,-0.9556258305,
 0.2034283744,1.2028804067\C,-0.0161692979,-0.0442406119,0.7278411889\O
 ,0.0644383479,0.0038677342,-0.634129239\\Version=ES64L-G16RevC.01\HF=-
 215.2947413\S2=0.\S2-1=0.\S2A=0.\RMSD=0.000e+00\RMSF=3.669e-05\ZeroPoi
 nt=0.0372685\Thermal=0.0406529\ETot=-215.2540885\HTot=-215.2531443\GTo
 t=-215.2804781\Dipole=0.,0.,0.\PG=C01 [X(C1H3O1)]\NImag=0\\0.44740142,
 0.03070826,0.00723838,0.17995972,0.01161173,0.13603075,0.00208447,-0.0
 0005637,0.00197522,0.29305185,0.00132591,0.00323316,0.00034889,0.04809
 870,0.01507003,0.00026512,-0.00081169,-0.00617683,0.12197470,0.0269502
 2,0.12452812,0.00253304,-0.00099690,-0.00011780,-0.01259086,0.00715364
 ,0.01266657,0.28682531,0.00065845,-0.00122897,-0.00126344,-0.00561419,
 0.00076008,0.00196642,-0.06542405,0.02069855,0.00398143,0.00009280,0.0
 0258569,-0.01181178,0.00304312,0.00758733,-0.11226580,0.03260775,0.116
 36697,-0.00230781,0.00167588,-0.04514629,-0.29076135,-0.05863439,-0.10
 048070,-0.28284542,0.07568094,0.09042093,0.67455083,-0.00190027,-0.001
 43220,-0.00095132,-0.04378246,-0.01655697,-0.02242998,0.05942854,-0.02
 308337,-0.02695276,-0.01682690,0.04573274,0.00627453,0.00204252,-0.026
 71478,-0.11517277,-0.02925861,-0.10038593,0.10152666,-0.03334929,-0.09
 844420,0.01589339,0.04229874,0.56797647,-0.44971571,-0.03133194,-0.136
 68260,0.00822041,0.00205571,-0.03443849,0.00607090,-0.00529615,0.02969
 479,-0.09864045,0.00307684,-0.00852495,0.53407617,-0.03079097,-0.00781
 289,-0.00974641,0.00135779,-0.00251112,-0.00567532,-0.00016554,0.00284
 890,-0.00879128,-0.00189403,-0.00464755,0.01827332,0.03149352,0.012122
 16,-0.19047593,-0.01293475,-0.10572777,0.00302252,-0.00108800,-0.02556
 187,-0.00180606,0.00003586,-0.02810204,0.03932657,0.00804029,-0.342404
 14,0.14994105,0.00594118,0.50178681\\0.00004457,-0.00001198,-0.0000169
 2,0.00003417,0.00001400,0.00002647,-0.00000698,0.00001961,0.00001122,-
 0.00003593,-0.00005035,-0.00007806,-0.00003786,0.00002140,0.00005776\\
 \@
 The archive entry for this job was punched.


 IF IT HAPPENS, IT MUST BE POSSIBLE.

 -- THE UNNAMED LAW FROM PAUL DICKSON'S 
    "THE OFFICIAL RULES"
 Job cpu time:       0 days  0 hours  0 minutes  0.4 seconds.
 Elapsed time:       0 days  0 hours  0 minutes  1.1 seconds.
 File lengths (MBytes):  RWF=      6 Int=      0 D2E=      0 Chk=      1 Scr=      1
 Normal termination of Gaussian 16 at Thu Mar  7 13:43:54 2024.
