 Entering Gaussian System, Link 0=g16
 Initial command:
 /opt/g16/l1.exe "/home/jh-li/scratch/g16/Gau-697401.inp" -scrdir="/home/jh-li/scratch/g16/"
 Entering Link 1 = /opt/g16/l1.exe PID=    697405.
  
 Copyright (c) 1988-2019, Gaussian, Inc.  All Rights Reserved.
  
 This is part of the Gaussian(R) 16 program.  It is based on
 the Gaussian(R) 09 system (copyright 2009, Gaussian, Inc.),
 the Gaussian(R) 03 system (copyright 2003, Gaussian, Inc.),
 the Gaussian(R) 98 system (copyright 1998, Gaussian, Inc.),
 the Gaussian(R) 94 system (copyright 1995, Gaussian, Inc.),
 the Gaussian 92(TM) system (copyright 1992, Gaussian, Inc.),
 the Gaussian 90(TM) system (copyright 1990, Gaussian, Inc.),
 the Gaussian 88(TM) system (copyright 1988, Gaussian, Inc.),
 the Gaussian 86(TM) system (copyright 1986, Carnegie Mellon
 University), and the Gaussian 82(TM) system (copyright 1983,
 Carnegie Mellon University). Gaussian is a federally registered
 trademark of Gaussian, Inc.
  
 This software contains proprietary and confidential information,
 including trade secrets, belonging to Gaussian, Inc.
  
 This software is provided under written license and may be
 used, copied, transmitted, or stored only in accord with that
 written license.
  
 The following legend is applicable only to US Government
 contracts under FAR:
  
                    RESTRICTED RIGHTS LEGEND
  
 Use, reproduction and disclosure by the US Government is
 subject to restrictions as set forth in subparagraphs (a)
 and (c) of the Commercial Computer Software - Restricted
 Rights clause in FAR 52.227-19.
  
 Gaussian, Inc.
 340 Quinnipiac St., Bldg. 40, Wallingford CT 06492
  
  
 ---------------------------------------------------------------
 Warning -- This program may not be used in any manner that
 competes with the business of Gaussian, Inc. or will provide
 assistance to any competitor of Gaussian, Inc.  The licensee
 of this program is prohibited from giving any competitor of
 Gaussian, Inc. access to this program.  By using this program,
 the user acknowledges that Gaussian, Inc. is engaged in the
 business of creating and licensing software in the field of
 computational chemistry and represents and warrants to the
 licensee that it is not a competitor of Gaussian, Inc. and that
 it will not use this program in any manner prohibited above.
 ---------------------------------------------------------------
  

 Cite this work as:
 Gaussian 16, Revision C.01,
 M. J. Frisch, G. W. Trucks, H. B. Schlegel, G. E. Scuseria, 
 M. A. Robb, J. R. Cheeseman, G. Scalmani, V. Barone, 
 G. A. Petersson, H. Nakatsuji, X. Li, M. Caricato, A. V. Marenich, 
 J. Bloino, B. G. Janesko, R. Gomperts, B. Mennucci, H. P. Hratchian, 
 J. V. Ortiz, A. F. Izmaylov, J. L. Sonnenberg, D. Williams-Young, 
 F. Ding, F. Lipparini, F. Egidi, J. Goings, B. Peng, A. Petrone, 
 T. Henderson, D. Ranasinghe, V. G. Zakrzewski, J. Gao, N. Rega, 
 G. Zheng, W. Liang, M. Hada, M. Ehara, K. Toyota, R. Fukuda, 
 J. Hasegawa, M. Ishida, T. Nakajima, Y. Honda, O. Kitao, H. Nakai, 
 T. Vreven, K. Throssell, J. A. Montgomery, Jr., J. E. Peralta, 
 F. Ogliaro, M. J. Bearpark, J. J. Heyd, E. N. Brothers, K. N. Kudin, 
 V. N. Staroverov, T. A. Keith, R. Kobayashi, J. Normand, 
 K. Raghavachari, A. P. Rendell, J. C. Burant, S. S. Iyengar, 
 J. Tomasi, M. Cossi, J. M. Millam, M. Klene, C. Adamo, R. Cammi, 
 J. W. Ochterski, R. L. Martin, K. Morokuma, O. Farkas, 
 J. B. Foresman, and D. J. Fox, Gaussian, Inc., Wallingford CT, 2019.
 
 ******************************************
 Gaussian 16:  ES64L-G16RevC.01  3-Jul-2019
                 7-Mar-2024 
 ******************************************
 %nproc=1
 Will use up to    1 processors via shared memory.
 %chk=CH3OH-opt-freq.chk
 -------------------------------------------------------
 #p external="python3 -u ../pes/h4co_pes.py" opt=nomicro
 -------------------------------------------------------
 1/18=20,19=15,26=1,38=1/1,3;
 2/9=110,12=2,17=6,18=5,40=1/2;
 3/11=9,25=1,30=1,41=9900000,43=2,71=1/1;
 4/20=17,22=1,24=3,113=1,114=1/2;
 6/7=2,8=2,9=2,10=2/1;
 7/44=-1/16;
 1/18=20,19=15,26=1/3(2);
 2/9=110/2;
 99//99;
 2/9=110/2;
 3/11=9,25=1,30=1,41=9900000,43=2,71=1/1;
 4/16=2,20=17,22=1,24=3,113=1,114=1/2;
 7/44=-1/16;
 1/18=20,19=15,26=1/3(-4);
 2/9=110/2;
 6/7=2,8=2,9=2,10=2/1;
 99/9=10/99;
 Leave Link    1 at Thu Mar  7 13:41:06 2024, MaxMem=           0 cpu:               0.0 elap:               0.0
 (Enter /opt/g16/l101.exe)
 -----
 CH3OH
 -----
 Symbolic Z-matrix:
 Charge =  0 Multiplicity = 1
 H                    -0.82853   0.       -1.03896 
 H                     1.00979   0.        1.09744 
 H                    -0.52029   0.89046   1.10866 
 H                    -0.52029  -0.89046   1.10866 
 C                    -0.01316   0.        0.72812 
 O                     0.06402   0.       -0.68998 
 
 ITRead=  0  0  0  0  0  0
 MicOpt= -1 -1 -1 -1 -1 -1
 NAtoms=      6 NQM=        6 NQMF=       0 NMMI=      0 NMMIF=      0
                NMic=       0 NMicF=      0.
                    Isotopes and Nuclear Properties:
 (Nuclear quadrupole moments (NQMom) in fm**2, nuclear magnetic moments (NMagM)
  in nuclear magnetons)

  Atom         1           2           3           4           5           6
 IAtWgt=           1           1           1           1          12          16
 AtmWgt=   1.0078250   1.0078250   1.0078250   1.0078250  12.0000000  15.9949146
 NucSpn=           1           1           1           1           0           0
 AtZEff=  -0.0000000  -0.0000000  -0.0000000  -0.0000000  -0.0000000  -0.0000000
 NQMom=    0.0000000   0.0000000   0.0000000   0.0000000   0.0000000   0.0000000
 NMagM=    2.7928460   2.7928460   2.7928460   2.7928460   0.0000000   0.0000000
 AtZNuc=   1.0000000   1.0000000   1.0000000   1.0000000   6.0000000   8.0000000
 Leave Link  101 at Thu Mar  7 13:41:06 2024, MaxMem=   104857600 cpu:               0.1 elap:               0.1
 (Enter /opt/g16/l103.exe)

 GradGradGradGradGradGradGradGradGradGradGradGradGradGradGradGradGradGrad
 Berny optimization.
 Initialization pass.
                           ----------------------------
                           !    Initial Parameters    !
                           ! (Angstroms and Degrees)  !
 --------------------------                            --------------------------
 ! Name  Definition              Value          Derivative Info.                !
 --------------------------------------------------------------------------------
 ! R1    R(1,6)                  0.9584         estimate D2E/DX2                !
 ! R2    R(2,5)                  1.0876         estimate D2E/DX2                !
 ! R3    R(3,5)                  1.0931         estimate D2E/DX2                !
 ! R4    R(4,5)                  1.0931         estimate D2E/DX2                !
 ! R5    R(5,6)                  1.4202         estimate D2E/DX2                !
 ! A1    A(2,5,3)              108.5508         estimate D2E/DX2                !
 ! A2    A(2,5,4)              108.5508         estimate D2E/DX2                !
 ! A3    A(2,5,6)              106.7362         estimate D2E/DX2                !
 ! A4    A(3,5,4)              109.096          estimate D2E/DX2                !
 ! A5    A(3,5,6)              111.8898         estimate D2E/DX2                !
 ! A6    A(4,5,6)              111.8898         estimate D2E/DX2                !
 ! A7    A(1,6,5)              108.24           estimate D2E/DX2                !
 ! D1    D(2,5,6,1)            180.0            estimate D2E/DX2                !
 ! D2    D(3,5,6,1)            -61.3896         estimate D2E/DX2                !
 ! D3    D(4,5,6,1)             61.3896         estimate D2E/DX2                !
 --------------------------------------------------------------------------------
 Trust Radius=3.00D-01 FncErr=1.00D-07 GrdErr=1.00D-07 EigMax=2.50D+02 EigMin=1.00D-04
 Number of steps in this run=     25 maximum allowed number of steps=    100.
 GradGradGradGradGradGradGradGradGradGradGradGradGradGradGradGradGradGrad

 Leave Link  103 at Thu Mar  7 13:41:06 2024, MaxMem=   104857600 cpu:               0.0 elap:               0.0
 (Enter /opt/g16/l202.exe)
                          Input orientation:                          
 ---------------------------------------------------------------------
 Center     Atomic      Atomic             Coordinates (Angstroms)
 Number     Number       Type             X           Y           Z
 ---------------------------------------------------------------------
      1          1           0       -0.828535    0.000000   -1.038964
      2          1           0        1.009790    0.000000    1.097441
      3          1           0       -0.520294    0.890456    1.108660
      4          1           0       -0.520294   -0.890456    1.108660
      5          6           0       -0.013162    0.000000    0.728118
      6          8           0        0.064018    0.000000   -0.689981
 ---------------------------------------------------------------------
                    Distance matrix (angstroms):
                    1          2          3          4          5
     1  H    0.000000
     2  H    2.818451   0.000000
     3  H    2.345253   1.770366   0.000000
     4  H    2.345253   1.770366   1.780912   0.000000
     5  C    1.946127   1.087581   1.093118   1.093118   0.000000
     6  O    0.958352   2.022218   2.090321   2.090321   1.420198
                    6
     6  O    0.000000
 Stoichiometry    CH4O
 Framework group  CS[SG(CH2O),X(H2)]
 Deg. of freedom     8
 Full point group                 CS      NOp   2
 Largest Abelian subgroup         CS      NOp   2
 Largest concise Abelian subgroup CS      NOp   2
                         Standard orientation:                         
 ---------------------------------------------------------------------
 Center     Atomic      Atomic             Coordinates (Angstroms)
 Number     Number       Type             X           Y           Z
 ---------------------------------------------------------------------
      1          1           0        0.863527   -1.056077    0.000000
      2          1           0       -1.088183    0.977268    0.000000
      3          1           0        0.439031    1.071622    0.890456
      4          1           0        0.439031    1.071622   -0.890456
      5          6           0       -0.046672    0.664082    0.000000
      6          8           0       -0.046672   -0.756116    0.000000
 ---------------------------------------------------------------------
 Rotational constants (GHZ):         128.5621704          24.8294175          23.9645748
 Leave Link  202 at Thu Mar  7 13:41:07 2024, MaxMem=   104857600 cpu:               0.0 elap:               0.0
 (Enter /opt/g16/l301.exe)
 Standard basis: STO-3G (5D, 7F)
 Ernie: Thresh=  0.10000D-02 Tol=  0.10000D-05 Strict=F.
 There are    11 symmetry adapted cartesian basis functions of A'  symmetry.
 There are     3 symmetry adapted cartesian basis functions of A"  symmetry.
 There are    11 symmetry adapted basis functions of A'  symmetry.
 There are     3 symmetry adapted basis functions of A"  symmetry.
    14 basis functions,    42 primitive gaussians,    14 cartesian basis functions
     9 alpha electrons        9 beta electrons
       nuclear repulsion energy        40.3405646606 Hartrees.
 IExCor=    0 DFT=F Ex=HF Corr=None ExCW=0 ScaHFX=  1.000000
 ScaDFX=  1.000000  1.000000  1.000000  1.000000 ScalE2=  1.000000  1.000000
 IRadAn=      5 IRanWt=     -1 IRanGd=            0 ICorTp=0 IEmpDi=  4
 NAtoms=    6 NActive=    6 NUniq=    5 SFac= 1.44D+00 NAtFMM=   60 NAOKFM=F Big=F
 Integral buffers will be    131072 words long.
 Raffenetti 1 integral format.
 Two-electron integral symmetry is turned on.
 Leave Link  301 at Thu Mar  7 13:41:07 2024, MaxMem=   104857600 cpu:               0.0 elap:               0.0
 (Enter /opt/g16/l402.exe)
 External calculation of energy and first derivatives.
 Running external command "python3 -u ../pes/h4co_pes.py R"
         input file       "/home/jh-li/scratch/g16/Gau-697405.EIn"
         output file      "/home/jh-li/scratch/g16/Gau-697405.EOu"
         message file     "/home/jh-li/scratch/g16/Gau-697405.EMs"
         fchk file        "/home/jh-li/scratch/g16/Gau-697405.EFC"
         mat. el file     "/home/jh-li/scratch/g16/Gau-697405.EUF"
 Recovered energy= -215.234134548     dipole=      0.000000000000      0.000000000000      0.000000000000
 Energy=    -215.234135     NIter=   0.
 Dipole moment=       0.000000       0.000000       0.000000
 Leave Link  402 at Thu Mar  7 13:41:07 2024, MaxMem=   104857600 cpu:               0.0 elap:               0.2
 (Enter /opt/g16/l601.exe)
 Leave Link  601 at Thu Mar  7 13:41:07 2024, MaxMem=   104857600 cpu:               0.0 elap:               0.0
 (Enter /opt/g16/l716.exe)
 Dipole        = 0.00000000D+00 0.00000000D+00 0.00000000D+00
 ***** Axes restored to original set *****
 -------------------------------------------------------------------
 Center     Atomic                   Forces (Hartrees/Bohr)
 Number     Number              X              Y              Z
 -------------------------------------------------------------------
      1        1          -0.001353724   -0.000000000   -0.000562255
      2        1           0.001053526   -0.000000000    0.000505190
      3        1          -0.000755118    0.001299757    0.000290311
      4        1          -0.000755118   -0.001299757    0.000290311
      5        6           0.000759899   -0.000000000   -0.000470545
      6        8           0.001041661   -0.000000000   -0.000054725
 -------------------------------------------------------------------
 Cartesian Forces:  Max     0.001353724 RMS     0.000748645
 Leave Link  716 at Thu Mar  7 13:41:07 2024, MaxMem=   104857600 cpu:               0.0 elap:               0.0
 (Enter /opt/g16/l103.exe)

 GradGradGradGradGradGradGradGradGradGradGradGradGradGradGradGradGradGrad
 Berny optimization.
 FormGI is forming the generalized inverse of G from B-inverse, IUseBI=4.
 Internal  Forces:  Max     0.001511022 RMS     0.000770013
 Search for a local minimum.
 Step number   1 out of a maximum of   25
 All quantities printed in internal units (Hartrees-Bohrs-Radians)
 RMS Force = .77001D-03 SwitMx=.10000D-02 MixMth= 2
 Mixed Optimization -- En-DIIS/RFO-DIIS
 Second derivative matrix not updated -- first step.
 The second derivative matrix:
                          R1        R2        R3        R4        R5
           R1           0.55829
           R2           0.00000   0.35094
           R3           0.00000   0.00000   0.34455
           R4           0.00000   0.00000   0.00000   0.34455
           R5           0.00000   0.00000   0.00000   0.00000   0.42431
           A1           0.00000   0.00000   0.00000   0.00000   0.00000
           A2           0.00000   0.00000   0.00000   0.00000   0.00000
           A3           0.00000   0.00000   0.00000   0.00000   0.00000
           A4           0.00000   0.00000   0.00000   0.00000   0.00000
           A5           0.00000   0.00000   0.00000   0.00000   0.00000
           A6           0.00000   0.00000   0.00000   0.00000   0.00000
           A7           0.00000   0.00000   0.00000   0.00000   0.00000
           D1           0.00000   0.00000   0.00000   0.00000   0.00000
           D2           0.00000   0.00000   0.00000   0.00000   0.00000
           D3           0.00000   0.00000   0.00000   0.00000   0.00000
                          A1        A2        A3        A4        A5
           A1           0.16000
           A2           0.00000   0.16000
           A3           0.00000   0.00000   0.16000
           A4           0.00000   0.00000   0.00000   0.16000
           A5           0.00000   0.00000   0.00000   0.00000   0.16000
           A6           0.00000   0.00000   0.00000   0.00000   0.00000
           A7           0.00000   0.00000   0.00000   0.00000   0.00000
           D1           0.00000   0.00000   0.00000   0.00000   0.00000
           D2           0.00000   0.00000   0.00000   0.00000   0.00000
           D3           0.00000   0.00000   0.00000   0.00000   0.00000
                          A6        A7        D1        D2        D3
           A6           0.16000
           A7           0.00000   0.16000
           D1           0.00000   0.00000   0.01425
           D2           0.00000   0.00000   0.00000   0.01425
           D3           0.00000   0.00000   0.00000   0.00000   0.01425
 ITU=  0
     Eigenvalues ---    0.01425   0.09940   0.10549   0.16000   0.16000
     Eigenvalues ---    0.16000   0.16000   0.34455   0.34455   0.35094
     Eigenvalues ---    0.42431   0.55829
 RFO step:  Lambda=-2.51636866D-05 EMin= 1.42460614D-02
 Linear search not attempted -- first point.
 Iteration  1 RMS(Cart)=  0.00262800 RMS(Int)=  0.00000365
 Iteration  2 RMS(Cart)=  0.00000418 RMS(Int)=  0.00000201
 Iteration  3 RMS(Cart)=  0.00000000 RMS(Int)=  0.00000201
 ITry= 1 IFail=0 DXMaxC= 4.58D-03 DCOld= 1.00D+10 DXMaxT= 3.00D-01 DXLimC= 3.00D+00 Rises=F
 ClnCor:  largest displacement from symmetrization is 8.82D-11 for atom     4.
 Variable       Old X    -DE/DX   Delta X   Delta X   Delta X     New X
                                 (Linear)    (Quad)   (Total)
    R1        1.81102   0.00146   0.00000   0.00261   0.00261   1.81363
    R2        2.05523   0.00116   0.00000   0.00331   0.00331   2.05854
    R3        2.06569   0.00151   0.00000   0.00439   0.00439   2.07008
    R4        2.06569   0.00151   0.00000   0.00439   0.00439   2.07008
    R5        2.68378   0.00060   0.00000   0.00142   0.00142   2.68521
    A1        1.89457   0.00010   0.00000   0.00092   0.00092   1.89549
    A2        1.89457   0.00010   0.00000   0.00092   0.00092   1.89549
    A3        1.86290   0.00036   0.00000   0.00257   0.00257   1.86547
    A4        1.90408   0.00020   0.00000   0.00070   0.00069   1.90478
    A5        1.95285  -0.00036   0.00000  -0.00245  -0.00245   1.95040
    A6        1.95285  -0.00036   0.00000  -0.00245  -0.00245   1.95040
    A7        1.88914   0.00007   0.00000   0.00044   0.00044   1.88959
    D1        3.14159   0.00000   0.00000   0.00000   0.00000   3.14159
    D2       -1.07145   0.00013   0.00000   0.00135   0.00134  -1.07011
    D3        1.07145  -0.00013   0.00000  -0.00135  -0.00134   1.07011
         Item               Value     Threshold  Converged?
 Maximum Force            0.001511     0.000450     NO 
 RMS     Force            0.000770     0.000300     NO 
 Maximum Displacement     0.004581     0.001800     NO 
 RMS     Displacement     0.002629     0.001200     NO 
 Predicted change in Energy=-1.258029D-05
 GradGradGradGradGradGradGradGradGradGradGradGradGradGradGradGradGradGrad

 Leave Link  103 at Thu Mar  7 13:41:07 2024, MaxMem=   104857600 cpu:               0.0 elap:               0.0
 (Enter /opt/g16/l202.exe)
                          Input orientation:                          
 ---------------------------------------------------------------------
 Center     Atomic      Atomic             Coordinates (Angstroms)
 Number     Number       Type             X           Y           Z
 ---------------------------------------------------------------------
      1          1           0       -0.830287    0.000000   -1.039386
      2          1           0        1.012214    0.000000    1.099839
      3          1           0       -0.521171    0.892566    1.107776
      4          1           0       -0.521171   -0.892566    1.107776
      5          6           0       -0.011847    0.000000    0.728432
      6          8           0        0.063786    0.000000   -0.690503
 ---------------------------------------------------------------------
                    Distance matrix (angstroms):
                    1          2          3          4          5
     1  H    0.000000
     2  H    2.823313   0.000000
     3  H    2.345747   1.774263   0.000000
     4  H    2.345747   1.774263   1.785131   0.000000
     5  C    1.948082   1.089333   1.095439   1.095439   0.000000
     6  O    0.959732   2.026041   2.091090   2.091090   1.420950
                    6
     6  O    0.000000
 Stoichiometry    CH4O
 Framework group  CS[SG(CH2O),X(H2)]
 Deg. of freedom     8
 Full point group                 CS      NOp   2
 RotChk:  IX=0 Diff= 1.58D-03
 Largest Abelian subgroup         CS      NOp   2
 Largest concise Abelian subgroup CS      NOp   2
                         Standard orientation:                         
 ---------------------------------------------------------------------
 Center     Atomic      Atomic             Coordinates (Angstroms)
 Number     Number       Type             X           Y           Z
 ---------------------------------------------------------------------
      1          1           0        0.864386   -1.057241    0.000000
      2          1           0       -1.089369    0.980880   -0.000000
      3          1           0        0.441421    1.070424    0.892566
      4          1           0        0.441421    1.070424   -0.892566
      5          6           0       -0.046990    0.664508   -0.000000
      6          8           0       -0.046990   -0.756442   -0.000000
 ---------------------------------------------------------------------
 Rotational constants (GHZ):         128.0281392          24.7966772          23.9326774
 Leave Link  202 at Thu Mar  7 13:41:07 2024, MaxMem=   104857600 cpu:               0.0 elap:               0.0
 (Enter /opt/g16/l301.exe)
 Standard basis: STO-3G (5D, 7F)
 Ernie: Thresh=  0.10000D-02 Tol=  0.10000D-05 Strict=F.
 There are    11 symmetry adapted cartesian basis functions of A'  symmetry.
 There are     3 symmetry adapted cartesian basis functions of A"  symmetry.
 There are    11 symmetry adapted basis functions of A'  symmetry.
 There are     3 symmetry adapted basis functions of A"  symmetry.
    14 basis functions,    42 primitive gaussians,    14 cartesian basis functions
     9 alpha electrons        9 beta electrons
       nuclear repulsion energy        40.2982309977 Hartrees.
 IExCor=    0 DFT=F Ex=HF Corr=None ExCW=0 ScaHFX=  1.000000
 ScaDFX=  1.000000  1.000000  1.000000  1.000000 ScalE2=  1.000000  1.000000
 IRadAn=      5 IRanWt=     -1 IRanGd=            0 ICorTp=0 IEmpDi=  4
 NAtoms=    6 NActive=    6 NUniq=    5 SFac= 1.44D+00 NAtFMM=   60 NAOKFM=F Big=F
 Integral buffers will be    131072 words long.
 Raffenetti 1 integral format.
 Two-electron integral symmetry is turned on.
 Leave Link  301 at Thu Mar  7 13:41:07 2024, MaxMem=   104857600 cpu:               0.1 elap:               0.0
 (Enter /opt/g16/l402.exe)
 External calculation of energy and first derivatives.
 Running external command "python3 -u ../pes/h4co_pes.py R"
         input file       "/home/jh-li/scratch/g16/Gau-697405.EIn"
         output file      "/home/jh-li/scratch/g16/Gau-697405.EOu"
         message file     "/home/jh-li/scratch/g16/Gau-697405.EMs"
         fchk file        "/home/jh-li/scratch/g16/Gau-697405.EFC"
         mat. el file     "/home/jh-li/scratch/g16/Gau-697405.EUF"
 Recovered energy= -215.234145601     dipole=      0.000000000000      0.000000000000      0.000000000000
 Energy=    -215.234146     NIter=   0.
 Dipole moment=       0.000000       0.000000       0.000000
 Leave Link  402 at Thu Mar  7 13:41:07 2024, MaxMem=   104857600 cpu:               0.0 elap:               0.2
 (Enter /opt/g16/l716.exe)
 Dipole        = 0.00000000D+00 0.00000000D+00 0.00000000D+00
 ***** Axes restored to original set *****
 -------------------------------------------------------------------
 Center     Atomic                   Forces (Hartrees/Bohr)
 Number     Number              X              Y              Z
 -------------------------------------------------------------------
      1        1          -0.000054626    0.000000000    0.000117841
      2        1          -0.000054835    0.000000000   -0.000143891
      3        1           0.000026421   -0.000019492    0.000052593
      4        1           0.000026421    0.000019492    0.000052593
      5        6          -0.000200613    0.000000000    0.000069137
      6        8           0.000248450   -0.000000000   -0.000149956
 -------------------------------------------------------------------
 Cartesian Forces:  Max     0.000248450 RMS     0.000099306
 Leave Link  716 at Thu Mar  7 13:41:07 2024, MaxMem=   104857600 cpu:               0.0 elap:               0.0
 (Enter /opt/g16/l103.exe)

 GradGradGradGradGradGradGradGradGradGradGradGradGradGradGradGradGradGrad
 Berny optimization.
 Using GEDIIS/GDIIS optimizer.
 FormGI is forming the generalized inverse of G from B-inverse, IUseBI=4.
 Internal  Forces:  Max     0.000219656 RMS     0.000094672
 Search for a local minimum.
 Step number   2 out of a maximum of   25
 All quantities printed in internal units (Hartrees-Bohrs-Radians)
 RMS Force = .94672D-04 SwitMx=.10000D-02 MixMth= 2
 Mixed Optimization -- En-DIIS/RFO-DIIS
 Swapping is turned off.
 Update second derivatives using D2CorX and points    1    2
 DE= -1.11D-05 DEPred=-1.26D-05 R= 8.79D-01
 TightC=F SS=  1.41D+00  RLast= 9.10D-03 DXNew= 5.0454D-01 2.7305D-02
 Trust test= 8.79D-01 RLast= 9.10D-03 DXMaxT set to 3.00D-01
 The second derivative matrix:
                          R1        R2        R3        R4        R5
           R1           0.55321
           R2           0.00140   0.35678
           R3          -0.00483   0.00183   0.33999
           R4          -0.00483   0.00183  -0.00455   0.33999
           R5          -0.00465  -0.00163  -0.00466  -0.00466   0.42141
           A1          -0.00401  -0.00288  -0.00413  -0.00413  -0.00181
           A2          -0.00401  -0.00288  -0.00413  -0.00413  -0.00181
           A3           0.00701   0.00771   0.00744   0.00744   0.00191
           A4           0.00634   0.00593   0.00664   0.00664   0.00221
           A5          -0.00277  -0.00396  -0.00302  -0.00302  -0.00033
           A6          -0.00277  -0.00396  -0.00302  -0.00302  -0.00033
           A7           0.01169   0.01041   0.01221   0.01221   0.00433
           D1          -0.00000  -0.00000  -0.00000  -0.00000  -0.00000
           D2           0.00928   0.00812   0.00968   0.00968   0.00351
           D3          -0.00928  -0.00812  -0.00968  -0.00968  -0.00351
                          A1        A2        A3        A4        A5
           A1           0.15939
           A2          -0.00061   0.15939
           A3          -0.00065  -0.00065   0.16527
           A4           0.00008   0.00008   0.00315   0.16156
           A5           0.00084   0.00084  -0.00349  -0.00237   0.16207
           A6           0.00084   0.00084  -0.00349  -0.00237   0.00207
           A7           0.00049   0.00049   0.00499   0.00223  -0.00397
           D1          -0.00000  -0.00000  -0.00000  -0.00000   0.00000
           D2           0.00048   0.00048   0.00373   0.00159  -0.00304
           D3          -0.00048  -0.00048  -0.00373  -0.00159   0.00304
                          A6        A7        D1        D2        D3
           A6           0.16207
           A7          -0.00397   0.16295
           D1           0.00000  -0.00000   0.01425
           D2          -0.00304   0.00202  -0.00000   0.01559
           D3           0.00304  -0.00202   0.00000  -0.00135   0.01559
 ITU=  1  0
     Eigenvalues ---    0.01425   0.10177   0.10542   0.15719   0.16000
     Eigenvalues ---    0.16000   0.17162   0.33759   0.34455   0.35935
     Eigenvalues ---    0.42189   0.55429
 En-DIIS/RFO-DIIS/Sim-DIIS IScMMF=       -3 using points:     2    1
 RFO step:  Lambda=-7.60259757D-07.
 NNeg= 0 NGDIIS= 2 SimSw=  2.50D-03 Rises=F DC= -1.11D-05 SmlDif=  1.00D-05
 NRisDI= 0 DoIntr=F SqrtH=F CThrHd= 10.0 CDAdj=  3.0
 RMS Error=  0.5580800608D-03 NUsed= 2 OKEnD=T EnDIS=F
 InvSVX:  RCond= 9.32D-05 Info=           0 Equed=N FErr=  1.02D-15 BErr=  3.13D-17
 DidBck=F Rises=F RFO-DIIS coefs:    0.90626    0.09374
 Iteration  1 RMS(Cart)=  0.00061205 RMS(Int)=  0.00000022
 Iteration  2 RMS(Cart)=  0.00000025 RMS(Int)=  0.00000002
 ITry= 1 IFail=0 DXMaxC= 1.48D-03 DCOld= 1.00D+10 DXMaxT= 3.00D-01 DXLimC= 3.00D+00 Rises=F
 ClnCor:  largest displacement from symmetrization is 1.01D-10 for atom     4.
 Variable       Old X    -DE/DX   Delta X   Delta X   Delta X     New X
                                 (Linear)    (Quad)   (Total)
    R1        1.81363  -0.00000  -0.00024   0.00031   0.00007   1.81370
    R2        2.05854  -0.00010  -0.00031   0.00013  -0.00018   2.05836
    R3        2.07008  -0.00001  -0.00041   0.00050   0.00009   2.07017
    R4        2.07008  -0.00001  -0.00041   0.00050   0.00009   2.07017
    R5        2.68521   0.00005  -0.00013   0.00027   0.00014   2.68535
    A1        1.89549   0.00001  -0.00009   0.00005  -0.00004   1.89545
    A2        1.89549   0.00001  -0.00009   0.00005  -0.00004   1.89545
    A3        1.86547  -0.00021  -0.00024  -0.00106  -0.00130   1.86417
    A4        1.90478  -0.00003  -0.00006   0.00014   0.00008   1.90485
    A5        1.95040   0.00010   0.00023   0.00039   0.00062   1.95102
    A6        1.95040   0.00010   0.00023   0.00039   0.00062   1.95102
    A7        1.88959  -0.00022  -0.00004  -0.00123  -0.00128   1.88831
    D1        3.14159   0.00000   0.00000   0.00000   0.00000   3.14159
    D2       -1.07011  -0.00006  -0.00013  -0.00038  -0.00050  -1.07061
    D3        1.07011   0.00006   0.00013   0.00038   0.00050   1.07061
         Item               Value     Threshold  Converged?
 Maximum Force            0.000220     0.000450     YES
 RMS     Force            0.000095     0.000300     YES
 Maximum Displacement     0.001480     0.001800     YES
 RMS     Displacement     0.000612     0.001200     YES
 Predicted change in Energy=-3.801745D-07
 Optimization completed.
    -- Stationary point found.
                           ----------------------------
                           !   Optimized Parameters   !
                           ! (Angstroms and Degrees)  !
 --------------------------                            --------------------------
 ! Name  Definition              Value          Derivative Info.                !
 --------------------------------------------------------------------------------
 ! R1    R(1,6)                  0.9597         -DE/DX =    0.0                 !
 ! R2    R(2,5)                  1.0893         -DE/DX =   -0.0001              !
 ! R3    R(3,5)                  1.0954         -DE/DX =    0.0                 !
 ! R4    R(4,5)                  1.0954         -DE/DX =    0.0                 !
 ! R5    R(5,6)                  1.4209         -DE/DX =    0.0                 !
 ! A1    A(2,5,3)              108.6038         -DE/DX =    0.0                 !
 ! A2    A(2,5,4)              108.6038         -DE/DX =    0.0                 !
 ! A3    A(2,5,6)              106.8836         -DE/DX =   -0.0002              !
 ! A4    A(3,5,4)              109.1356         -DE/DX =    0.0                 !
 ! A5    A(3,5,6)              111.7496         -DE/DX =    0.0001              !
 ! A6    A(4,5,6)              111.7496         -DE/DX =    0.0001              !
 ! A7    A(1,6,5)              108.2654         -DE/DX =   -0.0002              !
 ! D1    D(2,5,6,1)            180.0            -DE/DX =    0.0                 !
 ! D2    D(3,5,6,1)            -61.3126         -DE/DX =   -0.0001              !
 ! D3    D(4,5,6,1)             61.3126         -DE/DX =    0.0001              !
 --------------------------------------------------------------------------------
 Largest change from initial coordinates is atom    2       0.000 Angstoms.
 GradGradGradGradGradGradGradGradGradGradGradGradGradGradGradGradGradGrad

 Leave Link  103 at Thu Mar  7 13:41:07 2024, MaxMem=   104857600 cpu:               0.0 elap:               0.0
 (Enter /opt/g16/l202.exe)
                          Input orientation:                          
 ---------------------------------------------------------------------
 Center     Atomic      Atomic             Coordinates (Angstroms)
 Number     Number       Type             X           Y           Z
 ---------------------------------------------------------------------
      1          1           0       -0.830287    0.000000   -1.039386
      2          1           0        1.012214   -0.000000    1.099839
      3          1           0       -0.521171    0.892566    1.107776
      4          1           0       -0.521171   -0.892566    1.107776
      5          6           0       -0.011847    0.000000    0.728432
      6          8           0        0.063786   -0.000000   -0.690503
 ---------------------------------------------------------------------
                    Distance matrix (angstroms):
                    1          2          3          4          5
     1  H    0.000000
     2  H    2.823313   0.000000
     3  H    2.345747   1.774263   0.000000
     4  H    2.345747   1.774263   1.785131   0.000000
     5  C    1.948082   1.089333   1.095439   1.095439   0.000000
     6  O    0.959732   2.026041   2.091090   2.091090   1.420950
                    6
     6  O    0.000000
 Stoichiometry    CH4O
 Framework group  CS[SG(CH2O),X(H2)]
 Deg. of freedom     8
 Full point group                 CS      NOp   2
 RotChk:  IX=0 Diff= 1.47D-14
 Largest Abelian subgroup         CS      NOp   2
 Largest concise Abelian subgroup CS      NOp   2
                         Standard orientation:                         
 ---------------------------------------------------------------------
 Center     Atomic      Atomic             Coordinates (Angstroms)
 Number     Number       Type             X           Y           Z
 ---------------------------------------------------------------------
      1          1           0        0.864386   -1.057241    0.000000
      2          1           0       -1.089369    0.980880    0.000000
      3          1           0        0.441421    1.070424    0.892566
      4          1           0        0.441421    1.070424   -0.892566
      5          6           0       -0.046990    0.664508    0.000000
      6          8           0       -0.046990   -0.756442    0.000000
 ---------------------------------------------------------------------
 Rotational constants (GHZ):         128.0281392          24.7966772          23.9326774
 Leave Link  202 at Thu Mar  7 13:41:07 2024, MaxMem=   104857600 cpu:               0.0 elap:               0.0
 (Enter /opt/g16/l601.exe)
 Leave Link  601 at Thu Mar  7 13:41:07 2024, MaxMem=   104857600 cpu:               0.0 elap:               0.0
 (Enter /opt/g16/l9999.exe)
 Unable to Open any file for archive entry.
 1\1\GINC-DESKTOP-1D9QDE1\FOpt\External='python3 -u ../pes/h4co_pes.py'
 \ZDO\C1H4O1\JH-LI\07-Mar-2024\0\\#p external="python3 -u ../pes/h4co_p
 es.py" opt=nomicro\\CH3OH\\0,1\H,-0.830287388,0.,-1.039385967\H,1.0122
 144432,0.,1.0998391449\H,-0.5211714175,0.8925655458,1.1077757028\H,-0.
 5211714175,-0.8925655458,1.1077757028\C,-0.0118473883,0.,0.7284320785\
 O,0.0637859806,0.,-0.6905033556\\Version=ES64L-G16RevC.01\HF=-215.2341
 456\RMSD=0.000e+00\RMSF=9.931e-05\Dipole=0.,0.,0.\PG=CS [SG(C1H2O1),X(
 H2)]\\@
 The archive entry for this job was punched.


 THE POLHOLDE ROLLS WITHOUT SLIPPING ON THE HERPOLHOLDE LYING IN
 THE INVARIABLE PLANE.
 H.GOLDSTEIN, "CLASSICAL MECHANICS", PG 161
 Job cpu time:       0 days  0 hours  0 minutes  0.6 seconds.
 Elapsed time:       0 days  0 hours  0 minutes  0.8 seconds.
 File lengths (MBytes):  RWF=      6 Int=      0 D2E=      0 Chk=      1 Scr=      1
 Normal termination of Gaussian 16 at Thu Mar  7 13:41:07 2024.
 Initial command:
 /opt/g16/l1.exe "/home/jh-li/scratch/g16/Gau-697401.inp" -scrdir="/home/jh-li/scratch/g16/"
 Entering Link 1 = /opt/g16/l1.exe PID=    697427.
  
 Copyright (c) 1988-2019, Gaussian, Inc.  All Rights Reserved.
  
 This is part of the Gaussian(R) 16 program.  It is based on
 the Gaussian(R) 09 system (copyright 2009, Gaussian, Inc.),
 the Gaussian(R) 03 system (copyright 2003, Gaussian, Inc.),
 the Gaussian(R) 98 system (copyright 1998, Gaussian, Inc.),
 the Gaussian(R) 94 system (copyright 1995, Gaussian, Inc.),
 the Gaussian 92(TM) system (copyright 1992, Gaussian, Inc.),
 the Gaussian 90(TM) system (copyright 1990, Gaussian, Inc.),
 the Gaussian 88(TM) system (copyright 1988, Gaussian, Inc.),
 the Gaussian 86(TM) system (copyright 1986, Carnegie Mellon
 University), and the Gaussian 82(TM) system (copyright 1983,
 Carnegie Mellon University). Gaussian is a federally registered
 trademark of Gaussian, Inc.
  
 This software contains proprietary and confidential information,
 including trade secrets, belonging to Gaussian, Inc.
  
 This software is provided under written license and may be
 used, copied, transmitted, or stored only in accord with that
 written license.
  
 The following legend is applicable only to US Government
 contracts under FAR:
  
                    RESTRICTED RIGHTS LEGEND
  
 Use, reproduction and disclosure by the US Government is
 subject to restrictions as set forth in subparagraphs (a)
 and (c) of the Commercial Computer Software - Restricted
 Rights clause in FAR 52.227-19.
  
 Gaussian, Inc.
 340 Quinnipiac St., Bldg. 40, Wallingford CT 06492
  
  
 ---------------------------------------------------------------
 Warning -- This program may not be used in any manner that
 competes with the business of Gaussian, Inc. or will provide
 assistance to any competitor of Gaussian, Inc.  The licensee
 of this program is prohibited from giving any competitor of
 Gaussian, Inc. access to this program.  By using this program,
 the user acknowledges that Gaussian, Inc. is engaged in the
 business of creating and licensing software in the field of
 computational chemistry and represents and warrants to the
 licensee that it is not a competitor of Gaussian, Inc. and that
 it will not use this program in any manner prohibited above.
 ---------------------------------------------------------------
  

 Cite this work as:
 Gaussian 16, Revision C.01,
 M. J. Frisch, G. W. Trucks, H. B. Schlegel, G. E. Scuseria, 
 M. A. Robb, J. R. Cheeseman, G. Scalmani, V. Barone, 
 G. A. Petersson, H. Nakatsuji, X. Li, M. Caricato, A. V. Marenich, 
 J. Bloino, B. G. Janesko, R. Gomperts, B. Mennucci, H. P. Hratchian, 
 J. V. Ortiz, A. F. Izmaylov, J. L. Sonnenberg, D. Williams-Young, 
 F. Ding, F. Lipparini, F. Egidi, J. Goings, B. Peng, A. Petrone, 
 T. Henderson, D. Ranasinghe, V. G. Zakrzewski, J. Gao, N. Rega, 
 G. Zheng, W. Liang, M. Hada, M. Ehara, K. Toyota, R. Fukuda, 
 J. Hasegawa, M. Ishida, T. Nakajima, Y. Honda, O. Kitao, H. Nakai, 
 T. Vreven, K. Throssell, J. A. Montgomery, Jr., J. E. Peralta, 
 F. Ogliaro, M. J. Bearpark, J. J. Heyd, E. N. Brothers, K. N. Kudin, 
 V. N. Staroverov, T. A. Keith, R. Kobayashi, J. Normand, 
 K. Raghavachari, A. P. Rendell, J. C. Burant, S. S. Iyengar, 
 J. Tomasi, M. Cossi, J. M. Millam, M. Klene, C. Adamo, R. Cammi, 
 J. W. Ochterski, R. L. Martin, K. Morokuma, O. Farkas, 
 J. B. Foresman, and D. J. Fox, Gaussian, Inc., Wallingford CT, 2019.
 
 ******************************************
 Gaussian 16:  ES64L-G16RevC.01  3-Jul-2019
                 7-Mar-2024 
 ******************************************
 %nproc=1
 Will use up to    1 processors via shared memory.
 %chk=CH3OH-opt-freq.chk
 --------------------------------------------------------------
 #p external="python3 -u ../pes/h4co_pes.py" freq geom=allcheck
 --------------------------------------------------------------
 1/10=4,18=10,29=7,30=1,38=1/1,3;
 2/12=2,40=1/2;
 3/11=9,14=-4,25=1,30=1,41=9900000,43=2,71=2,140=1/1;
 4/20=17,22=2,24=3,113=1,114=1/2;
 6/7=2,8=2,9=2,10=2/1;
 7/8=1,25=1,44=-1/16;
 1/10=4,18=10,30=1/3;
 99//99;
 Leave Link    1 at Thu Mar  7 13:41:07 2024, MaxMem=           0 cpu:               0.0 elap:               0.0
 (Enter /opt/g16/l101.exe)
 Structure from the checkpoint file:  "CH3OH-opt-freq.chk"
 -----
 CH3OH
 -----
 Charge =  0 Multiplicity = 1
 Redundant internal coordinates found in file.  (old form).
 H,0,-0.830287388,0.,-1.039385967
 H,0,1.0122144432,0.,1.0998391449
 H,0,-0.5211714175,0.8925655458,1.1077757028
 H,0,-0.5211714175,-0.8925655458,1.1077757028
 C,0,-0.0118473883,0.,0.7284320785
 O,0,0.0637859806,0.,-0.6905033556
 Recover connectivity data from disk.
 ITRead=  0  0  0  0  0  0
 MicOpt= -1 -1 -1 -1 -1 -1
 NAtoms=      6 NQM=        6 NQMF=       0 NMMI=      0 NMMIF=      0
                NMic=       0 NMicF=      0.
                    Isotopes and Nuclear Properties:
 (Nuclear quadrupole moments (NQMom) in fm**2, nuclear magnetic moments (NMagM)
  in nuclear magnetons)

  Atom         1           2           3           4           5           6
 IAtWgt=           1           1           1           1          12          16
 AtmWgt=   1.0078250   1.0078250   1.0078250   1.0078250  12.0000000  15.9949146
 NucSpn=           1           1           1           1           0           0
 AtZEff=   1.0000000   1.0000000   1.0000000   1.0000000   3.6000000   5.6000000
 NQMom=    0.0000000   0.0000000   0.0000000   0.0000000   0.0000000   0.0000000
 NMagM=    2.7928460   2.7928460   2.7928460   2.7928460   0.0000000   0.0000000
 AtZNuc=   1.0000000   1.0000000   1.0000000   1.0000000   6.0000000   8.0000000
 Leave Link  101 at Thu Mar  7 13:41:07 2024, MaxMem=   104857600 cpu:               0.1 elap:               0.1
 (Enter /opt/g16/l103.exe)

 GradGradGradGradGradGradGradGradGradGradGradGradGradGradGradGradGradGrad
 Berny optimization.
 Initialization pass.
 Trust Radius=3.00D-01 FncErr=1.00D-07 GrdErr=1.00D-07 EigMax=2.50D+02 EigMin=1.00D-04
 Number of steps in this run=      2 maximum allowed number of steps=      2.
 GradGradGradGradGradGradGradGradGradGradGradGradGradGradGradGradGradGrad

 Leave Link  103 at Thu Mar  7 13:41:07 2024, MaxMem=   104857600 cpu:               0.0 elap:               0.0
 (Enter /opt/g16/l202.exe)
                          Input orientation:                          
 ---------------------------------------------------------------------
 Center     Atomic      Atomic             Coordinates (Angstroms)
 Number     Number       Type             X           Y           Z
 ---------------------------------------------------------------------
      1          1           0       -0.830287   -0.000000   -1.039386
      2          1           0        1.012214    0.000000    1.099839
      3          1           0       -0.521171    0.892566    1.107776
      4          1           0       -0.521171   -0.892566    1.107776
      5          6           0       -0.011847    0.000000    0.728432
      6          8           0        0.063786    0.000000   -0.690503
 ---------------------------------------------------------------------
                    Distance matrix (angstroms):
                    1          2          3          4          5
     1  H    0.000000
     2  H    2.823313   0.000000
     3  H    2.345747   1.774263   0.000000
     4  H    2.345747   1.774263   1.785131   0.000000
     5  C    1.948082   1.089333   1.095439   1.095439   0.000000
     6  O    0.959732   2.026041   2.091090   2.091090   1.420950
                    6
     6  O    0.000000
 Stoichiometry    CH4O
 Framework group  CS[SG(CH2O),X(H2)]
 Deg. of freedom     8
 Full point group                 CS      NOp   2
 RotChk:  IX=0 Diff= 3.51D-16
 Largest Abelian subgroup         CS      NOp   2
 Largest concise Abelian subgroup CS      NOp   2
                         Standard orientation:                         
 ---------------------------------------------------------------------
 Center     Atomic      Atomic             Coordinates (Angstroms)
 Number     Number       Type             X           Y           Z
 ---------------------------------------------------------------------
      1          1           0        0.864386   -1.057241   -0.000000
      2          1           0       -1.089369    0.980880    0.000000
      3          1           0        0.441421    1.070424    0.892566
      4          1           0        0.441421    1.070424   -0.892566
      5          6           0       -0.046990    0.664508    0.000000
      6          8           0       -0.046990   -0.756442   -0.000000
 ---------------------------------------------------------------------
 Rotational constants (GHZ):         128.0281392          24.7966772          23.9326774
 Leave Link  202 at Thu Mar  7 13:41:07 2024, MaxMem=   104857600 cpu:               0.0 elap:               0.0
 (Enter /opt/g16/l301.exe)
 Standard basis: STO-3G (5D, 7F)
 Ernie: Thresh=  0.10000D-02 Tol=  0.10000D-05 Strict=F.
 There are    11 symmetry adapted cartesian basis functions of A'  symmetry.
 There are     3 symmetry adapted cartesian basis functions of A"  symmetry.
 There are    11 symmetry adapted basis functions of A'  symmetry.
 There are     3 symmetry adapted basis functions of A"  symmetry.
    14 basis functions,    42 primitive gaussians,    14 cartesian basis functions
     9 alpha electrons        9 beta electrons
       nuclear repulsion energy        40.2982309977 Hartrees.
 IExCor=    0 DFT=F Ex=HF Corr=None ExCW=0 ScaHFX=  1.000000
 ScaDFX=  1.000000  1.000000  1.000000  1.000000 ScalE2=  1.000000  1.000000
 IRadAn=      5 IRanWt=     -1 IRanGd=            0 ICorTp=0 IEmpDi=  4
 NAtoms=    6 NActive=    6 NUniq=    5 SFac= 1.44D+00 NAtFMM=   60 NAOKFM=F Big=F
 Integral buffers will be    131072 words long.
 Raffenetti 1 integral format.
 Two-electron integral symmetry is turned on.
 Leave Link  301 at Thu Mar  7 13:41:07 2024, MaxMem=   104857600 cpu:               0.0 elap:               0.0
 (Enter /opt/g16/l402.exe)
 External calculation of energy, first and second derivatives.
 Running external command "python3 -u ../pes/h4co_pes.py R"
         input file       "/home/jh-li/scratch/g16/Gau-697427.EIn"
         output file      "/home/jh-li/scratch/g16/Gau-697427.EOu"
         message file     "/home/jh-li/scratch/g16/Gau-697427.EMs"
         fchk file        "/home/jh-li/scratch/g16/Gau-697427.EFC"
         mat. el file     "/home/jh-li/scratch/g16/Gau-697427.EUF"
 Recovered energy= -215.234145601     dipole=      0.000000000000      0.000000000000      0.000000000000
 Energy=    -215.234146     NIter=   0.
 Dipole moment=       0.000000       0.000000       0.000000
 Leave Link  402 at Thu Mar  7 13:41:09 2024, MaxMem=   104857600 cpu:               0.0 elap:               1.1
 (Enter /opt/g16/l601.exe)
 Leave Link  601 at Thu Mar  7 13:41:09 2024, MaxMem=   104857600 cpu:               0.0 elap:               0.0
 (Enter /opt/g16/l716.exe)
 Dipole        = 0.00000000D+00 0.00000000D+00 0.00000000D+00
 Full mass-weighted force constant matrix:
 Low frequencies ---  -19.5130   -0.7788    0.0801    0.4563    9.8655   31.8319
 Low frequencies ---  265.4579 1073.0325 1098.4186
 Diagonal vibrational polarizability:
        0.0000000       0.0000000       0.0000000
 Harmonic frequencies (cm**-1), IR intensities (KM/Mole), Raman scattering
 activities (A**4/AMU), depolarization ratios for plane and unpolarized
 incident light, reduced masses (AMU), force constants (mDyne/A),
 and normal coordinates:
                      1                      2                      3
                     A"                     A'                     A'
 Frequencies --    265.4440              1073.0325              1098.4186
 Red. masses --      1.0725                 3.2824                 1.3289
 Frc consts  --      0.0445                 2.2267                 0.9447
 IR Inten    --      0.0000                 0.0000                 0.0000
  Atom  AN      X      Y      Z        X      Y      Z        X      Y      Z
     1   1    -0.00   0.00   0.89    -0.27  -0.48  -0.00     0.19   0.63   0.00
     2   1    -0.00  -0.00   0.29    -0.05  -0.64  -0.00     0.11   0.45   0.00
     3   1     0.22  -0.02  -0.11    -0.22   0.00   0.03     0.22  -0.34  -0.06
     4   1    -0.22   0.02  -0.11    -0.22   0.00  -0.03     0.22  -0.34   0.06
     5   6     0.00  -0.00   0.01     0.06  -0.29   0.00    -0.07  -0.13  -0.00
     6   8    -0.00   0.00  -0.07     0.00   0.29  -0.00     0.01   0.07   0.00
                      4                      5                      6
                     A"                     A'                     A'
 Frequencies --   1174.2688              1376.1426              1481.3831
 Red. masses --      1.2755                 1.2884                 1.1502
 Frc consts  --      1.0362                 1.4376                 1.4872
 IR Inten    --      0.0000                 0.0000                 0.0000
  Atom  AN      X      Y      Z        X      Y      Z        X      Y      Z
     1   1     0.00   0.00  -0.02     0.20   0.76  -0.00     0.02   0.04   0.00
     2   1     0.00   0.00  -0.32    -0.01  -0.46  -0.00     0.20   0.53  -0.00
     3   1     0.07   0.63  -0.19    -0.22   0.11   0.14    -0.19   0.52  -0.15
     4   1    -0.07  -0.63  -0.19    -0.22   0.11  -0.14    -0.19   0.52   0.15
     5   6    -0.00   0.00   0.14     0.13  -0.01   0.00     0.02  -0.11   0.00
     6   8     0.00  -0.00  -0.06    -0.08  -0.02  -0.00    -0.01  -0.02   0.00
                      7                      8                      9
                     A'                     A"                     A'
 Frequencies --   1516.6913              1528.5496              3026.6492
 Red. masses --      1.0341                 1.0406                 1.0367
 Frc consts  --      1.4015                 1.4325                 5.5953
 IR Inten    --      0.0000                 0.0000                 0.0000
  Atom  AN      X      Y      Z        X      Y      Z        X      Y      Z
     1   1     0.02   0.11  -0.00    -0.00  -0.00  -0.02    -0.00  -0.00  -0.00
     2   1    -0.12  -0.39   0.00     0.00   0.00   0.71    -0.28   0.08   0.00
     3   1     0.45   0.26  -0.37    -0.39   0.30   0.06     0.30   0.23   0.56
     4   1     0.45   0.26   0.37     0.39  -0.30   0.06     0.30   0.23  -0.56
     5   6    -0.04  -0.02  -0.00     0.00   0.00  -0.05    -0.03  -0.04   0.00
     6   8    -0.02  -0.00  -0.00     0.00   0.00  -0.01     0.00  -0.00  -0.00
                     10                     11                     12
                     A"                     A'                     A'
 Frequencies --   3071.2401              3135.9353              3858.9431
 Red. masses --      1.1044                 1.0977                 1.0664
 Frc consts  --      6.1376                 6.3599                 9.3563
 IR Inten    --      0.0000                 0.0000                 0.0000
  Atom  AN      X      Y      Z        X      Y      Z        X      Y      Z
     1   1    -0.00   0.00   0.00    -0.01  -0.00  -0.00     0.94  -0.33  -0.00
     2   1    -0.00   0.00  -0.03     0.92  -0.26  -0.00     0.00   0.00   0.00
     3   1     0.33   0.25   0.57     0.07   0.07   0.16     0.00  -0.00   0.00
     4   1    -0.33  -0.25   0.57     0.07   0.07  -0.16     0.00  -0.00  -0.00
     5   6     0.00  -0.00  -0.09    -0.09   0.01  -0.00    -0.00  -0.00  -0.00
     6   8     0.00  -0.00   0.00     0.00  -0.00   0.00    -0.06   0.02   0.00

 -------------------
 - Thermochemistry -
 -------------------
 Temperature   298.150 Kelvin.  Pressure   1.00000 Atm.
 Atom     1 has atomic number  1 and mass   1.00783
 Atom     2 has atomic number  1 and mass   1.00783
 Atom     3 has atomic number  1 and mass   1.00783
 Atom     4 has atomic number  1 and mass   1.00783
 Atom     5 has atomic number  6 and mass  12.00000
 Atom     6 has atomic number  8 and mass  15.99491
 Molecular mass:    32.02621 amu.
 Principal axes and moments of inertia in atomic units:
                           1         2         3
     Eigenvalues --    14.09644  72.78157  75.40908
           X           -0.05444   0.99852   0.00000
           Y            0.99852   0.05444   0.00000
           Z           -0.00000  -0.00000   1.00000
 This molecule is an asymmetric top.
 Rotational symmetry number  1.
 Rotational temperatures (Kelvin)      6.14438     1.19005     1.14859
 Rotational constants (GHZ):         128.02814    24.79668    23.93268
 Zero-point vibrational energy     135218.1 (Joules/Mol)
                                   32.31790 (Kcal/Mol)
 Warning -- explicit consideration of   1 degrees of freedom as
           vibrations may cause significant error
 Vibrational temperatures:    381.91  1543.85  1580.38  1689.51  1979.96
          (Kelvin)           2131.38  2182.18  2199.24  4354.67  4418.83
                             4511.91  5552.16
 
 Zero-point correction=                           0.051502 (Hartree/Particle)
 Thermal correction to Energy=                    0.054893
 Thermal correction to Enthalpy=                  0.055838
 Thermal correction to Gibbs Free Energy=         0.028675
 Sum of electronic and zero-point Energies=           -215.182644
 Sum of electronic and thermal Energies=              -215.179252
 Sum of electronic and thermal Enthalpies=            -215.178308
 Sum of electronic and thermal Free Energies=         -215.205471
 
                     E (Thermal)             CV                S
                      KCal/Mol        Cal/Mol-Kelvin    Cal/Mol-Kelvin
 Total                   34.446              8.839             57.169
 Electronic               0.000              0.000              0.000
 Translational            0.889              2.981             36.324
 Rotational               0.889              2.981             18.987
 Vibrational             32.669              2.877              1.858
 Vibration     1          0.671              1.736              1.626
                       Q            Log10(Q)             Ln(Q)
 Total Bot       0.646516D-13        -13.189421        -30.369764
 Total V=0       0.316056D+11         10.499764         24.176600
 Vib (Bot)       0.288233D-23        -23.540256        -54.203443
 Vib (Bot)    1  0.729747D+00         -0.136828         -0.315057
 Vib (V=0)       0.140906D+01          0.148929          0.342921
 Vib (V=0)    1  0.138461D+01          0.141327          0.325417
 Electronic      0.100000D+01          0.000000          0.000000
 Translational   0.712381D+07          6.852712         15.778953
 Rotational      0.314864D+04          3.498123          8.054726
 ***** Axes restored to original set *****
 -------------------------------------------------------------------
 Center     Atomic                   Forces (Hartrees/Bohr)
 Number     Number              X              Y              Z
 -------------------------------------------------------------------
      1        1          -0.000054626   -0.000000000    0.000117841
      2        1          -0.000054835    0.000000000   -0.000143891
      3        1           0.000026421   -0.000019492    0.000052593
      4        1           0.000026421    0.000019492    0.000052593
      5        6          -0.000200613   -0.000000000    0.000069137
      6        8           0.000248450    0.000000000   -0.000149956
 -------------------------------------------------------------------
 Cartesian Forces:  Max     0.000248450 RMS     0.000099306
 Force constants in Cartesian coordinates: 
                1             2             3             4             5 
      1  0.464980D+00
      2  0.000000D+00  0.206313D-02
      3  0.169635D+00  0.000000D+00  0.124511D+00
      4  0.100402D-02  0.000000D+00  0.457345D-03  0.315647D+00
      5  0.000000D+00 -0.147263D-03  0.000000D+00  0.000000D+00  0.479429D-01
      6 -0.891473D-03  0.000000D+00 -0.774348D-02  0.886076D-01  0.000000D+00
      7  0.849497D-03 -0.129142D-02  0.270652D-03 -0.136528D-01  0.270775D-01
      8 -0.497809D-03  0.439390D-03 -0.119323D-02 -0.622529D-03  0.889746D-03
      9  0.196829D-02 -0.871176D-03  0.145826D-02 -0.349068D-02  0.940215D-02
     10  0.849497D-03  0.129142D-02  0.270652D-03 -0.136528D-01 -0.270775D-01
     11  0.497809D-03  0.439390D-03  0.119323D-02  0.622529D-03  0.889746D-03
     12  0.196829D-02  0.871176D-03  0.145826D-02 -0.349068D-02 -0.940215D-02
     13  0.118705D-02  0.000000D+00 -0.432838D-01 -0.297066D+00  0.000000D+00
     14  0.000000D+00 -0.157374D-02  0.000000D+00  0.000000D+00 -0.508918D-01
     15  0.995992D-02  0.000000D+00 -0.211578D-01 -0.837687D-01  0.000000D+00
     16 -0.468872D+00  0.000000D+00 -0.127352D+00  0.771711D-02  0.000000D+00
     17  0.000000D+00 -0.122427D-02  0.000000D+00  0.000000D+00  0.132062D-02
     18 -0.182636D+00  0.000000D+00 -0.985200D-01  0.168216D-02  0.000000D+00
                6             7             8             9            10 
      6  0.930553D-01
      7  0.863179D-02  0.110128D+00
      8  0.208018D-02 -0.109077D+00  0.238511D+00
      9  0.412279D-02 -0.419522D-01  0.733133D-01  0.910489D-01
     10  0.863179D-02  0.818130D-02  0.132536D-01 -0.520036D-02  0.110128D+00
     11 -0.208018D-02 -0.132536D-01 -0.220026D-01  0.711629D-02  0.109077D+00
     12  0.412279D-02 -0.520036D-02 -0.711629D-02  0.490428D-02 -0.419522D-01
     13 -0.666451D-01 -0.109460D+00  0.100371D+00  0.307048D-01 -0.109460D+00
     14  0.000000D+00  0.974209D-01 -0.224830D+00 -0.598205D-01 -0.974209D-01
     15 -0.677229D-01  0.369717D-01 -0.641302D-01 -0.708486D-01  0.369717D-01
     16 -0.383485D-01  0.395476D-02 -0.342994D-02  0.179697D-01  0.395476D-02
     17  0.000000D+00 -0.870637D-03  0.699494D-02 -0.291440D-01  0.870637D-03
     18 -0.258361D-01  0.127724D-02 -0.295583D-02 -0.306887D-01  0.127724D-02
               11            12            13            14            15 
     11  0.238511D+00
     12 -0.733133D-01  0.910489D-01
     13 -0.100371D+00  0.307048D-01  0.609141D+00
     14 -0.224830D+00  0.598205D-01  0.000000D+00  0.558431D+00
     15  0.641302D-01 -0.708486D-01  0.154200D-01  0.000000D+00  0.477522D+00
     16  0.342994D-02  0.179697D-01 -0.943437D-01  0.000000D+00 -0.155338D-01
     17  0.699494D-02  0.291440D-01  0.000000D+00 -0.563214D-01  0.000000D+00
     18  0.295583D-02 -0.306887D-01  0.331077D-01  0.000000D+00 -0.246939D+00
               16            17            18 
     16  0.547596D+00
     17  0.000000D+00  0.422448D-01
     18  0.145289D+00  0.000000D+00  0.432668D+00
 Leave Link  716 at Thu Mar  7 13:41:09 2024, MaxMem=   104857600 cpu:               0.0 elap:               0.0
 (Enter /opt/g16/l103.exe)

 GradGradGradGradGradGradGradGradGradGradGradGradGradGradGradGradGradGrad
 Berny optimization.
 Search for a local minimum.
 Step number   1 out of a maximum of    2
 All quantities printed in internal units (Hartrees-Bohrs-Radians)
 Second derivative matrix not updated -- analytic derivatives used.
 The second derivative matrix:
                          X1        Y1        Z1        X2        Y2
           X1           0.46498
           Y1           0.00000   0.00206
           Z1           0.16963   0.00000   0.12451
           X2           0.00100  -0.00000   0.00046   0.31565
           Y2           0.00000  -0.00015  -0.00000   0.00000   0.04794
           Z2          -0.00089   0.00000  -0.00774   0.08861   0.00000
           X3           0.00085  -0.00129   0.00027  -0.01365   0.02708
           Y3          -0.00050   0.00044  -0.00119  -0.00062   0.00089
           Z3           0.00197  -0.00087   0.00146  -0.00349   0.00940
           X4           0.00085   0.00129   0.00027  -0.01365  -0.02708
           Y4           0.00050   0.00044   0.00119   0.00062   0.00089
           Z4           0.00197   0.00087   0.00146  -0.00349  -0.00940
           X5           0.00119   0.00000  -0.04328  -0.29707  -0.00000
           Y5          -0.00000  -0.00157   0.00000  -0.00000  -0.05089
           Z5           0.00996   0.00000  -0.02116  -0.08377  -0.00000
           X6          -0.46887  -0.00000  -0.12735   0.00772   0.00000
           Y6           0.00000  -0.00122  -0.00000   0.00000   0.00132
           Z6          -0.18264  -0.00000  -0.09852   0.00168  -0.00000
                          Z2        X3        Y3        Z3        X4
           Z2           0.09306
           X3           0.00863   0.11013
           Y3           0.00208  -0.10908   0.23851
           Z3           0.00412  -0.04195   0.07331   0.09105
           X4           0.00863   0.00818   0.01325  -0.00520   0.11013
           Y4          -0.00208  -0.01325  -0.02200   0.00712   0.10908
           Z4           0.00412  -0.00520  -0.00712   0.00490  -0.04195
           X5          -0.06665  -0.10946   0.10037   0.03070  -0.10946
           Y5          -0.00000   0.09742  -0.22483  -0.05982  -0.09742
           Z5          -0.06772   0.03697  -0.06413  -0.07085   0.03697
           X6          -0.03835   0.00395  -0.00343   0.01797   0.00395
           Y6          -0.00000  -0.00087   0.00699  -0.02914   0.00087
           Z6          -0.02584   0.00128  -0.00296  -0.03069   0.00128
                          Y4        Z4        X5        Y5        Z5
           Y4           0.23851
           Z4          -0.07331   0.09105
           X5          -0.10037   0.03070   0.60914
           Y5          -0.22483   0.05982  -0.00000   0.55843
           Z5           0.06413  -0.07085   0.01542  -0.00000   0.47752
           X6           0.00343   0.01797  -0.09434   0.00000  -0.01553
           Y6           0.00699   0.02914  -0.00000  -0.05632   0.00000
           Z6           0.00296  -0.03069   0.03311  -0.00000  -0.24694
                          X6        Y6        Z6
           X6           0.54760
           Y6          -0.00000   0.04224
           Z6           0.14529  -0.00000   0.43267
 ITU=  0
     Eigenvalues ---    0.00387   0.05256   0.09186   0.09631   0.12252
     Eigenvalues ---    0.12426   0.17619   0.33958   0.65656   0.72168
     Eigenvalues ---    0.76942   0.98088
 Angle between quadratic step and forces=  37.96 degrees.
 ClnCor:  largest displacement from symmetrization is 5.74D-11 for atom     1.
 Linear search not attempted -- first point.
 ClnCor:  largest displacement from symmetrization is 2.05D-15 for atom     2.
 B after Tr=     0.000134    0.000000   -0.000048
         Rot=    1.000000   -0.000000    0.000052   -0.000000 Ang=   0.01 deg.
 Variable       Old X    -DE/DX   Delta X   Delta X   Delta X     New X
                                 (Linear)    (Quad)   (Total)
    X1       -1.56902  -0.00005   0.00000   0.00005   0.00039  -1.56863
    Y1       -0.00000  -0.00000   0.00000   0.00000  -0.00000  -0.00000
    Z1       -1.96415   0.00012   0.00000   0.00100   0.00079  -1.96337
    X2        1.91281  -0.00005   0.00000  -0.00033  -0.00041   1.91239
    Y2        0.00000   0.00000   0.00000  -0.00000   0.00000   0.00000
    Z2        2.07839  -0.00014   0.00000  -0.00131  -0.00116   2.07724
    X3       -0.98487   0.00003   0.00000  -0.00007  -0.00016  -0.98503
    Y3        1.68670  -0.00002   0.00000   0.00000   0.00000   1.68671
    Z3        2.09339   0.00005   0.00000   0.00050   0.00035   2.09374
    X4       -0.98487   0.00003   0.00000  -0.00007  -0.00016  -0.98503
    Y4       -1.68670   0.00002   0.00000  -0.00000  -0.00000  -1.68671
    Z4        2.09339   0.00005   0.00000   0.00050   0.00035   2.09374
    X5       -0.02239  -0.00020   0.00000  -0.00054  -0.00055  -0.02294
    Y5        0.00000  -0.00000   0.00000  -0.00000   0.00000   0.00000
    Z5        1.37654   0.00007   0.00000   0.00001  -0.00004   1.37650
    X6        0.12054   0.00025   0.00000   0.00061   0.00088   0.12142
    Y6        0.00000   0.00000   0.00000   0.00000   0.00000   0.00000
    Z6       -1.30486  -0.00015   0.00000  -0.00026  -0.00029  -1.30515
         Item               Value     Threshold  Converged?
 Maximum Force            0.000248     0.000450     YES
 RMS     Force            0.000099     0.000300     YES
 Maximum Displacement     0.001159     0.001800     YES
 RMS     Displacement     0.000456     0.001200     YES
 Predicted change in Energy=-3.250015D-07
 Optimization completed.
    -- Stationary point found.
 GradGradGradGradGradGradGradGradGradGradGradGradGradGradGradGradGradGrad

 Leave Link  103 at Thu Mar  7 13:41:09 2024, MaxMem=   104857600 cpu:               0.0 elap:               0.0
 (Enter /opt/g16/l9999.exe)
 Unable to Open any file for archive entry.
 1\1\GINC-DESKTOP-1D9QDE1\Freq\External='python3 -u ../pes/h4co_pes.py'
 \ZDO\C1H4O1\JH-LI\07-Mar-2024\0\\#p external="python3 -u ../pes/h4co_p
 es.py" freq geom=allcheck\\CH3OH\\0,1\H,-0.830287388,0.,-1.039385967\H
 ,1.0122144432,0.,1.0998391449\H,-0.5211714175,0.8925655458,1.107775702
 8\H,-0.5211714175,-0.8925655458,1.1077757028\C,-0.0118473883,0.,0.7284
 320785\O,0.0637859806,0.,-0.6905033556\\Version=ES64L-G16RevC.01\HF=-2
 15.2341456\RMSD=0.000e+00\RMSF=9.931e-05\ZeroPoint=0.0515018\Thermal=0
 .0548934\ETot=-215.1792522\HTot=-215.178308\GTot=-215.2054709\Dipole=0
 .,0.,0.\PG=CS [SG(C1H2O1),X(H2)]\NImag=0\\0.46497985,0.,0.00206313,0.1
 6963461,0.,0.12451133,0.00100402,0.,0.00045734,0.31564684,0.,-0.000147
 26,0.,0.,0.04794288,-0.00089147,0.,-0.00774348,0.08860755,0.,0.0930552
 8,0.00084950,-0.00129142,0.00027065,-0.01365276,0.02707747,0.00863179,
 0.11012785,-0.00049781,0.00043939,-0.00119323,-0.00062253,0.00088975,0
 .00208018,-0.10907694,0.23851097,0.00196829,-0.00087118,0.00145826,-0.
 00349068,0.00940215,0.00412279,-0.04195219,0.07331328,0.09104893,0.000
 84950,0.00129142,0.00027065,-0.01365276,-0.02707747,0.00863179,0.00818
 130,0.01325359,-0.00520036,0.11012785,0.00049781,0.00043939,0.00119323
 ,0.00062253,0.00088975,-0.00208018,-0.01325359,-0.02200256,0.00711629,
 0.10907694,0.23851097,0.00196829,0.00087118,0.00145826,-0.00349068,-0.
 00940215,0.00412279,-0.00520036,-0.00711629,0.00490428,-0.04195219,-0.
 07331328,0.09104893,0.00118705,0.,-0.04328381,-0.29706631,0.,-0.066645
 05,-0.10946015,0.10037068,0.03070485,-0.10946015,-0.10037068,0.0307048
 5,0.60914148,0.,-0.00157374,0.,0.,-0.05089182,0.,0.09742089,-0.2248296
 5,-0.05982051,-0.09742089,-0.22482965,0.05982051,0.,0.55843052,0.00995
 992,0.,-0.02115776,-0.08376869,0.,-0.06772287,0.03697175,-0.06413020,-
 0.07084861,0.03697175,0.06413020,-0.07084861,0.01542005,0.,0.47752205,
 -0.46887223,0.,-0.12735238,0.00771711,0.,-0.03834845,0.00395476,-0.003
 42994,0.01796971,0.00395476,0.00342994,0.01796971,-0.09434365,0.,-0.01
 553381,0.54759625,0.,-0.00122427,0.,0.,0.00132062,0.,-0.00087064,0.006
 99494,-0.02914396,0.00087064,0.00699494,0.02914396,0.,-0.05632143,0.,0
 .,0.04224481,-0.18263645,0.,-0.09852002,0.00168216,0.,-0.02583606,0.00
 127724,-0.00295583,-0.03068874,0.00127724,0.00295583,-0.03068874,0.033
 10766,0.,-0.24693869,0.14528872,0.,0.43266784\\0.00005463,0.,-0.000117
 84,0.00005484,0.,0.00014389,-0.00002642,0.00001949,-0.00005259,-0.0000
 2642,-0.00001949,-0.00005259,0.00020061,0.,-0.00006914,-0.00024845,0.,
 0.00014996\\\@
 The archive entry for this job was punched.


 MICHAEL FARADAY, ASKED BY A POLITICIAN WHAT GOOD
 HIS ELECTRICAL DISCOVERIES WERE, REPLIED 
 "AT PRESENT I DO NOT KNOW, BUT ONE DAY YOU WILL BE
 ABLE TO TAX THEM."
 Job cpu time:       0 days  0 hours  0 minutes  0.4 seconds.
 Elapsed time:       0 days  0 hours  0 minutes  1.4 seconds.
 File lengths (MBytes):  RWF=      6 Int=      0 D2E=      0 Chk=      1 Scr=      1
 Normal termination of Gaussian 16 at Thu Mar  7 13:41:09 2024.
