 Entering Gaussian System, Link 0=g16
 Initial command:
 /opt/g16/l1.exe "/home/jh-li/scratch/g16/Gau-332541.inp" -scrdir="/home/jh-li/scratch/g16/"
 Entering Link 1 = /opt/g16/l1.exe PID=    332544.
  
 Copyright (c) 1988-2019, Gaussian, Inc.  All Rights Reserved.
  
 This is part of the Gaussian(R) 16 program.  It is based on
 the Gaussian(R) 09 system (copyright 2009, Gaussian, Inc.),
 the Gaussian(R) 03 system (copyright 2003, Gaussian, Inc.),
 the Gaussian(R) 98 system (copyright 1998, Gaussian, Inc.),
 the Gaussian(R) 94 system (copyright 1995, Gaussian, Inc.),
 the Gaussian 92(TM) system (copyright 1992, Gaussian, Inc.),
 the Gaussian 90(TM) system (copyright 1990, Gaussian, Inc.),
 the Gaussian 88(TM) system (copyright 1988, Gaussian, Inc.),
 the Gaussian 86(TM) system (copyright 1986, Carnegie Mellon
 University), and the Gaussian 82(TM) system (copyright 1983,
 Carnegie Mellon University). Gaussian is a federally registered
 trademark of Gaussian, Inc.
  
 This software contains proprietary and confidential information,
 including trade secrets, belonging to Gaussian, Inc.
  
 This software is provided under written license and may be
 used, copied, transmitted, or stored only in accord with that
 written license.
  
 The following legend is applicable only to US Government
 contracts under FAR:
  
                    RESTRICTED RIGHTS LEGEND
  
 Use, reproduction and disclosure by the US Government is
 subject to restrictions as set forth in subparagraphs (a)
 and (c) of the Commercial Computer Software - Restricted
 Rights clause in FAR 52.227-19.
  
 Gaussian, Inc.
 340 Quinnipiac St., Bldg. 40, Wallingford CT 06492
  
  
 ---------------------------------------------------------------
 Warning -- This program may not be used in any manner that
 competes with the business of Gaussian, Inc. or will provide
 assistance to any competitor of Gaussian, Inc.  The licensee
 of this program is prohibited from giving any competitor of
 Gaussian, Inc. access to this program.  By using this program,
 the user acknowledges that Gaussian, Inc. is engaged in the
 business of creating and licensing software in the field of
 computational chemistry and represents and warrants to the
 licensee that it is not a competitor of Gaussian, Inc. and that
 it will not use this program in any manner prohibited above.
 ---------------------------------------------------------------
  

 Cite this work as:
 Gaussian 16, Revision C.01,
 M. J. Frisch, G. W. Trucks, H. B. Schlegel, G. E. Scuseria, 
 M. A. Robb, J. R. Cheeseman, G. Scalmani, V. Barone, 
 G. A. Petersson, H. Nakatsuji, X. Li, M. Caricato, A. V. Marenich, 
 J. Bloino, B. G. Janesko, R. Gomperts, B. Mennucci, H. P. Hratchian, 
 J. V. Ortiz, A. F. Izmaylov, J. L. Sonnenberg, D. Williams-Young, 
 F. Ding, F. Lipparini, F. Egidi, J. Goings, B. Peng, A. Petrone, 
 T. Henderson, D. Ranasinghe, V. G. Zakrzewski, J. Gao, N. Rega, 
 G. Zheng, W. Liang, M. Hada, M. Ehara, K. Toyota, R. Fukuda, 
 J. Hasegawa, M. Ishida, T. Nakajima, Y. Honda, O. Kitao, H. Nakai, 
 T. Vreven, K. Throssell, J. A. Montgomery, Jr., J. E. Peralta, 
 F. Ogliaro, M. J. Bearpark, J. J. Heyd, E. N. Brothers, K. N. Kudin, 
 V. N. Staroverov, T. A. Keith, R. Kobayashi, J. Normand, 
 K. Raghavachari, A. P. Rendell, J. C. Burant, S. S. Iyengar, 
 J. Tomasi, M. Cossi, J. M. Millam, M. Klene, C. Adamo, R. Cammi, 
 J. W. Ochterski, R. L. Martin, K. Morokuma, O. Farkas, 
 J. B. Foresman, and D. J. Fox, Gaussian, Inc., Wallingford CT, 2019.
 
 ******************************************
 Gaussian 16:  ES64L-G16RevC.01  3-Jul-2019
                 6-Mar-2024 
 ******************************************
 %nproc=1
 Will use up to    1 processors via shared memory.
 %oldchk=ts1-opt-freq.chk
 Copying data from "ts1-opt-freq.chk" to current chk file "/home/jh-li/scratch/g16/Gau-332544.chk"
 IOpt=  2 FromEx=T IUOpen= 4 IOptOp= 5 NList=   0 IFRang= 0 IUIn= 4 IUOut= 2.
 ----------------------------------------------------------------------
 #p external="python3 -u ../pes/h4cfo_pes.py" irc=(calcall,stepsize=3,m
 axpoint=100) geom=allcheck
 ----------------------------------------------------------------------
 1/6=10,10=4,18=10,26=1,29=7,38=1,39=3,42=100,44=3,71=1,172=1/1,23;
 2/12=2,29=1,40=1/2;
 3/11=9,14=-4,25=1,30=1,41=9900000,43=2,71=2,140=1/1;
 4/20=17,22=1002,24=3,113=1,114=1/2;
 6/7=2,8=2,9=2,10=2,18=1/1;
 7/25=1,44=-1/16;
 1/6=10,10=4,18=10,26=1,39=3,42=100,44=3,71=1/23(2);
 2/29=1/2;
 99/5=20/99;
 2/29=1/2;
 3/11=9,14=-2,25=1,30=1,41=9900000,43=2,71=2,140=1/1;
 4/16=2,20=17,22=1002,24=3,113=1,114=1/2;
 7/25=1,44=-1/16;
 1/6=10,10=4,18=10,26=1,39=3,42=100,44=3,71=1/23(-4);
 2/29=1/2;
 6/7=2,8=2,9=2,10=2,18=1/1;
 99/5=20/99;
 Leave Link    1 at Wed Mar  6 21:36:30 2024, MaxMem=   104857600 cpu:               0.0 elap:               0.0
 (Enter /opt/g16/l101.exe)
 Structure from the checkpoint file:  "/home/jh-li/scratch/g16/Gau-332544.chk"
 ----------------------
 F + CH3OH -> HF + CH3O
 ----------------------
 Charge =  0 Multiplicity = 2
 Redundant internal coordinates found in file.  (old form).
 H,0,-0.7139823168,-0.516154437,-0.2388545512
 H,0,0.1608080431,-0.3947483775,2.1805072716
 H,0,0.9508822659,1.0150618746,1.4337326341
 H,0,1.2247070881,-0.626610753,0.7691704456
 C,0,0.5053571817,0.0419501415,1.2387192655
 F,0,0.1622373127,-0.384366431,-1.3850338451
 O,0,-0.6205988047,0.2542868924,0.3950362995
 Recover connectivity data from disk.
 ITRead=  0  0  0  0  0  0  0
 MicOpt= -1 -1 -1 -1 -1 -1 -1
 NAtoms=      7 NQM=        7 NQMF=       0 NMMI=      0 NMMIF=      0
                NMic=       0 NMicF=      0.
                    Isotopes and Nuclear Properties:
 (Nuclear quadrupole moments (NQMom) in fm**2, nuclear magnetic moments (NMagM)
  in nuclear magnetons)

  Atom         1           2           3           4           5           6           7
 IAtWgt=           1           1           1           1          12          19          16
 AtmWgt=   1.0078250   1.0078250   1.0078250   1.0078250  12.0000000  18.9984032  15.9949146
 NucSpn=           1           1           1           1           0           1           0
 AtZEff=   1.0000000   1.0000000   1.0000000   1.0000000   3.6000000   6.7500000   5.6000000
 NQMom=    0.0000000   0.0000000   0.0000000   0.0000000   0.0000000   0.0000000   0.0000000
 NMagM=    2.7928460   2.7928460   2.7928460   2.7928460   0.0000000   2.6288670   0.0000000
 AtZNuc=   1.0000000   1.0000000   1.0000000   1.0000000   6.0000000   9.0000000   8.0000000
 Leave Link  101 at Wed Mar  6 21:36:30 2024, MaxMem=   104857600 cpu:               0.1 elap:               0.1
 (Enter /opt/g16/l123.exe)
 IRC-IRC-IRC-IRC-IRC-IRC-IRC-IRC-IRC-IRC-IRC-IRC-IRC-IRC-IRC-IRC-IRC-IRC
 ------------------------------------------------------------------------
 INPUT DATA FOR L123
 ------------------------------------------------------------------------
 GENERAL PARAMETERS:
 Follow reaction path in both directions.
 Maximum points per path      = 100
 Step size                    =   0.030 bohr
 Integration scheme           = HPC                                 
    Redo corrector integration= Yes                                 
    DWI Weight Power          =  2
    DWI will use Hessian update vectors when possible.
    Max correction cycles     =  10
 Initial Hessian              = CalcFC
 Hessian evaluation           = Analytic at all predictor steps
                              = Update at all corrector steps
 Hessian updating method      = Bofill                              
 ------------------------------------------------------------------------
 IRC-IRC-IRC-IRC-IRC-IRC-IRC-IRC-IRC-IRC-IRC-IRC-IRC-IRC-IRC-IRC-IRC-IRC
 Leave Link  123 at Wed Mar  6 21:36:30 2024, MaxMem=   104857600 cpu:               0.0 elap:               0.0
 (Enter /opt/g16/l202.exe)
                          Input orientation:                          
 ---------------------------------------------------------------------
 Center     Atomic      Atomic             Coordinates (Angstroms)
 Number     Number       Type             X           Y           Z
 ---------------------------------------------------------------------
      1          1           0       -0.713982   -0.516154   -0.238855
      2          1           0        0.160808   -0.394748    2.180507
      3          1           0        0.950882    1.015062    1.433733
      4          1           0        1.224707   -0.626611    0.769170
      5          6           0        0.505357    0.041950    1.238719
      6          9           0        0.162237   -0.384366   -1.385034
      7          8           0       -0.620599    0.254287    0.395036
 ---------------------------------------------------------------------
                    Distance matrix (angstroms):
                    1          2          3          4          5
     1  H    0.000000
     2  H    2.575521   0.000000
     3  H    2.813174   1.780296   0.000000
     4  H    2.187883   1.782558   1.792125   0.000000
     5  C    1.995368   1.093794   1.087874   1.088538   0.000000
     6  F    1.448743   3.565557   3.244350   2.414150   2.680216
     7  O    1.002057   2.054203   2.031556   2.078728   1.422907
                    6          7
     6  F    0.000000
     7  O    2.046793   0.000000
 Symmetry turned off by external request.
 Stoichiometry    CH4FO(2)
 Framework group  C1[X(CH4FO)]
 Deg. of freedom    15
 Full point group                 C1      NOp   1
 Rotational constants (GHZ):          32.3790379           7.2810996           6.2343508
 Leave Link  202 at Wed Mar  6 21:36:30 2024, MaxMem=   104857600 cpu:               0.0 elap:               0.0
 (Enter /opt/g16/l301.exe)
 Standard basis: STO-3G (5D, 7F)
 Ernie: Thresh=  0.10000D-02 Tol=  0.10000D-05 Strict=F.
    19 basis functions,    57 primitive gaussians,    19 cartesian basis functions
    14 alpha electrons       13 beta electrons
       nuclear repulsion energy        77.4517375741 Hartrees.
 IExCor=    0 DFT=F Ex=HF Corr=None ExCW=0 ScaHFX=  1.000000
 ScaDFX=  1.000000  1.000000  1.000000  1.000000 ScalE2=  1.000000  1.000000
 IRadAn=      5 IRanWt=     -1 IRanGd=            0 ICorTp=0 IEmpDi=  4
 NAtoms=    7 NActive=    7 NUniq=    7 SFac= 1.00D+00 NAtFMM=   60 NAOKFM=F Big=F
 Integral buffers will be    131072 words long.
 Raffenetti 2 integral format.
 Two-electron integral symmetry is turned off.
 Leave Link  301 at Wed Mar  6 21:36:31 2024, MaxMem=   104857600 cpu:               0.0 elap:               0.0
 (Enter /opt/g16/l402.exe)
 External calculation of energy, first and second derivatives.
 Running external command "python3 -u ../pes/h4cfo_pes.py R"
         input file       "/home/jh-li/scratch/g16/Gau-332544.EIn"
         output file      "/home/jh-li/scratch/g16/Gau-332544.EOu"
         message file     "/home/jh-li/scratch/g16/Gau-332544.EMs"
         fchk file        "/home/jh-li/scratch/g16/Gau-332544.EFC"
         mat. el file     "/home/jh-li/scratch/g16/Gau-332544.EUF"
 Recovered energy= -215.242980990     dipole=      0.000000000000      0.000000000000      0.000000000000
 NRF= 0 NRA=   0 NVA=   0 HaveQM=F NVQ=       0
 Convergence limit is  0.750E-04 MaxStp= 10000 StMxLn= 3.00D-04 StpMin= 1.00D-06.
 Convergence criteria             0.00011250 0.00007500 0.00045000 0.00030000
  Step  NS  ND Rises OKQ   Scale  Max. Force  RMS Force Max. Disp.  RMS Disp.     Energy   Flag
     1   0   0   F    T  1.00D+00 0.00000000 0.00000000 0.00000000 0.00000000 -215.2429810 ====
 Running external command "python3 -u ../pes/h4cfo_pes.py R"
         input file       "/home/jh-li/scratch/g16/Gau-332544.EIn"
         output file      "/home/jh-li/scratch/g16/Gau-332544.EOu"
         message file     "/home/jh-li/scratch/g16/Gau-332544.EMs"
         fchk file        "/home/jh-li/scratch/g16/Gau-332544.EFC"
         mat. el file     "/home/jh-li/scratch/g16/Gau-332544.EUF"
 Recovered energy= -215.242980990     dipole=      0.000000000000      0.000000000000      0.000000000000
 Energy=    -215.242981     NIter=   0.
 Dipole moment=       0.000000       0.000000       0.000000
 Leave Link  402 at Wed Mar  6 21:36:32 2024, MaxMem=   104857600 cpu:               0.0 elap:               1.0
 (Enter /opt/g16/l601.exe)
 Leave Link  601 at Wed Mar  6 21:36:32 2024, MaxMem=   104857600 cpu:               0.0 elap:               0.0
 (Enter /opt/g16/l716.exe)
 Dipole        = 0.00000000D+00 0.00000000D+00 0.00000000D+00
 -------------------------------------------------------------------
 Center     Atomic                   Forces (Hartrees/Bohr)
 Number     Number              X              Y              Z
 -------------------------------------------------------------------
      1        1           0.000006976   -0.000026550    0.000009175
      2        1           0.000004386    0.000004253    0.000012792
      3        1          -0.000017120   -0.000002022    0.000008963
      4        1          -0.000014108    0.000001323   -0.000001586
      5        6           0.000035080   -0.000001213   -0.000037595
      6        9           0.000003410    0.000002529   -0.000012076
      7        8          -0.000016667    0.000012473   -0.000003678
 -------------------------------------------------------------------
 Cartesian Forces:  Max     0.000037595 RMS     0.000015237
 Force constants in Cartesian coordinates: 
                1             2             3             4             5 
      1  0.481591D-01
      2  0.542298D-01  0.246884D+00
      3  0.715123D-01  0.125664D+00  0.647174D-01
      4  0.622362D-03 -0.237039D-02 -0.635022D-02  0.916716D-01
      5  0.174545D-03 -0.133540D-02  0.471717D-03  0.392325D-01  0.920659D-01
      6  0.184703D-02  0.485085D-03 -0.637987D-03 -0.777703D-01 -0.101430D+00
      7 -0.389993D-02 -0.284939D-02 -0.305483D-02 -0.485936D-02 -0.991697D-02
      8 -0.679467D-03  0.184614D-02  0.465244D-02 -0.256867D-02 -0.103244D-01
      9 -0.600263D-02 -0.243729D-02  0.235042D-02  0.129575D-01  0.246710D-01
     10  0.464952D-02  0.117980D-02 -0.335372D-02 -0.911910D-02  0.660458D-02
     11 -0.186547D-02 -0.206304D-03 -0.154983D-02 -0.108482D-01  0.999247D-02
     12 -0.116264D-02  0.390885D-04  0.134826D-02  0.192171D-01 -0.178620D-01
     13 -0.150556D-01  0.844324D-02 -0.568305D-03 -0.796396D-01 -0.409034D-01
     14 -0.243784D-01  0.654298D-02 -0.127753D-01 -0.404284D-01 -0.926387D-01
     15 -0.121238D-01  0.361717D-02 -0.290848D-01  0.815471D-01  0.894523D-01
     16 -0.927347D-02 -0.276815D-01 -0.289570D-01 -0.447113D-03  0.434084D-03
     17  0.185382D-02 -0.170520D-01 -0.133266D-01  0.316651D-03 -0.653485D-03
     18  0.327115D-02  0.335913D-01  0.294674D-01  0.126756D-02 -0.465515D-03
     19 -0.252054D-01 -0.309598D-01 -0.292414D-01  0.178357D-02  0.437186D-02
     20 -0.293362D-01 -0.236673D+00 -0.103127D+00  0.166654D-01  0.290223D-02
     21 -0.573249D-01 -0.160967D+00 -0.681719D-01 -0.308585D-01  0.516851D-02
                6             7             8             9            10 
      6  0.263064D+00
      7 -0.242784D-03  0.101934D+00
      8 -0.771044D-02  0.106216D+00  0.293685D+00
      9  0.442897D-02  0.282298D-01  0.422812D-01  0.613674D-01
     10  0.616635D-02  0.100475D-01 -0.722313D-02 -0.600164D-02  0.183619D+00
     11  0.765543D-02  0.189106D-01 -0.153566D-01 -0.114094D-01 -0.122378D+00
     12 -0.932587D-02  0.197008D-02 -0.882372D-03  0.654390D-03 -0.786602D-01
     13  0.844229D-01 -0.859314D-01 -0.987578D-01 -0.105694D-01 -0.158934D+00
     14  0.920280D-01 -0.903410D-01 -0.279921D+00 -0.366945D-01  0.103457D+00
     15 -0.229713D+00 -0.172057D-01 -0.329861D-01 -0.514939D-01  0.688050D-01
     16 -0.167359D-02  0.975999D-03 -0.605461D-03  0.979943D-03 -0.248242D-02
     17  0.315979D-03 -0.138245D-03  0.122471D-02  0.130734D-02 -0.106624D-02
     18 -0.649687D-03  0.598621D-03  0.473166D-05  0.583849D-03  0.277345D-02
     19 -0.127495D-01 -0.182443D-01  0.362362D-02 -0.195957D-01 -0.277569D-01
     20  0.864954D-02 -0.218991D-01  0.883286D-02 -0.177269D-01  0.194300D-01
     21 -0.271796D-01 -0.103056D-01 -0.535922D-02 -0.179028D-01  0.102612D-01
               11            12            13            14            15 
     11  0.161938D+00
     12  0.802714D-01  0.116320D+00
     13  0.110660D+00  0.861763D-01  0.505045D+00
     14 -0.155062D+00 -0.812146D-01  0.118742D-01  0.603265D+00
     15 -0.772059D-01 -0.110052D+00 -0.646488D-01  0.254105D-01  0.518319D+00
     16  0.149512D-04 -0.349046D-02  0.475339D-02  0.339053D-02 -0.615302D-02
     17 -0.101890D-02  0.230138D-02 -0.248483D-02  0.346585D-03 -0.443611D-02
     18 -0.528824D-03  0.281665D-02  0.856122D-03 -0.262128D-02 -0.675908D-02
     19  0.550669D-02 -0.240574D-01 -0.170315D+00  0.364329D-01 -0.502112D-01
     20 -0.275482D-03  0.173416D-01  0.111906D-01 -0.825472D-01 -0.382859D-02
     21  0.276162D-02 -0.177591D-02 -0.956915D-01  0.158725D-01 -0.911918D-01
               16            17            18            19            20 
     16  0.200841D-01
     17 -0.118671D-01  0.739406D-02
     18 -0.206375D-01  0.192673D-01  0.562895D-01
     19 -0.136113D-01  0.133822D-01  0.118624D-01  0.253371D+00
     20  0.363174D-01  0.976129D-02 -0.492504D-01 -0.323654D-01  0.297997D+00
     21  0.599165D-01 -0.543721D-02 -0.817524D-01  0.124024D+00  0.147951D+00
               21 
     21  0.288005D+00
 Leave Link  716 at Wed Mar  6 21:36:32 2024, MaxMem=   104857600 cpu:               0.0 elap:               0.0
 (Enter /opt/g16/l123.exe)
 IRC-IRC-IRC-IRC-IRC-IRC-IRC-IRC-IRC-IRC-IRC-IRC-IRC-IRC-IRC-IRC-IRC-IRC
          ******** Start new reaction path calculation ********
 Current Structure is TS -> form Hessian eigenvectors.
                            Diagonalizing Hessian.
 Supplied step size of   0.0300 bohr.
    Integration on MW PES will use step size of   0.0307 sqrt(amu)*bohr.
 Point Number:   0          Path Number:   1
 Calculating another point on the path.
 Point Number  1 in FORWARD path direction.
 Using LQA Reaction Path Following.
 IRC-IRC-IRC-IRC-IRC-IRC-IRC-IRC-IRC-IRC-IRC-IRC-IRC-IRC-IRC-IRC-IRC-IRC
 Leave Link  123 at Wed Mar  6 21:36:32 2024, MaxMem=   104857600 cpu:               0.0 elap:               0.0
 (Enter /opt/g16/l202.exe)
                          Input orientation:                          
 ---------------------------------------------------------------------
 Center     Atomic      Atomic             Coordinates (Angstroms)
 Number     Number       Type             X           Y           Z
 ---------------------------------------------------------------------
      1          1           0       -0.721742   -0.448348   -0.232523
      2          1           0        0.143315   -0.330794    2.198729
      3          1           0        0.934038    1.079074    1.453382
      4          1           0        1.207353   -0.563109    0.787822
      5          6           0        0.488659    0.105944    1.257149
      6          9           0        0.145140   -0.320733   -1.365964
      7          8           0       -0.637486    0.318059    0.414195
 ---------------------------------------------------------------------
                    Distance matrix (angstroms):
                    1          2          3          4          5
     1  H    0.000000
     2  H    2.583239   0.000000
     3  H    2.813698   1.780032   0.000000
     4  H    2.185333   1.782360   1.792885   0.000000
     5  C    1.997857   1.093881   1.088049   1.088311   0.000000
     6  F    1.432640   3.564707   3.245078   2.413676   2.679697
     7  O    1.006340   2.053100   2.031931   2.078337   1.422591
                    6          7
     6  F    0.000000
     7  O    2.046832   0.000000
 Symmetry turned off by external request.
 Stoichiometry    CH4FO(2)
 Framework group  C1[X(CH4FO)]
 Deg. of freedom    15
 Full point group                 C1      NOp   1
 Rotational constants (GHZ):          32.4213002           7.2831516           6.2357941
 Leave Link  202 at Wed Mar  6 21:36:32 2024, MaxMem=   104857600 cpu:               0.0 elap:               0.0
 (Enter /opt/g16/l301.exe)
 Standard basis: STO-3G (5D, 7F)
 Ernie: Thresh=  0.10000D-02 Tol=  0.10000D-05 Strict=F.
    19 basis functions,    57 primitive gaussians,    19 cartesian basis functions
    14 alpha electrons       13 beta electrons
       nuclear repulsion energy        77.4753624795 Hartrees.
 IExCor=    0 DFT=F Ex=HF Corr=None ExCW=0 ScaHFX=  1.000000
 ScaDFX=  1.000000  1.000000  1.000000  1.000000 ScalE2=  1.000000  1.000000
 IRadAn=      5 IRanWt=     -1 IRanGd=            0 ICorTp=0 IEmpDi=  4
 NAtoms=    7 NActive=    7 NUniq=    7 SFac= 1.00D+00 NAtFMM=   60 NAOKFM=F Big=F
 Integral buffers will be    131072 words long.
 Raffenetti 2 integral format.
 Two-electron integral symmetry is turned off.
 Leave Link  301 at Wed Mar  6 21:36:32 2024, MaxMem=   104857600 cpu:               0.0 elap:               0.0
 (Enter /opt/g16/l402.exe)
 External calculation of energy, first and second derivatives.
 Running external command "python3 -u ../pes/h4cfo_pes.py R"
         input file       "/home/jh-li/scratch/g16/Gau-332544.EIn"
         output file      "/home/jh-li/scratch/g16/Gau-332544.EOu"
         message file     "/home/jh-li/scratch/g16/Gau-332544.EMs"
         fchk file        "/home/jh-li/scratch/g16/Gau-332544.EFC"
         mat. el file     "/home/jh-li/scratch/g16/Gau-332544.EUF"
 Recovered energy= -215.242994822     dipole=      0.000000000000      0.000000000000      0.000000000000
 NRF= 0 NRA=   0 NVA=   0 HaveQM=F NVQ=       0
 Convergence limit is  0.750E-04 MaxStp= 10000 StMxLn= 3.00D-04 StpMin= 1.00D-06.
 Convergence criteria             0.00011250 0.00007500 0.00045000 0.00030000
  Step  NS  ND Rises OKQ   Scale  Max. Force  RMS Force Max. Disp.  RMS Disp.     Energy   Flag
     1   0   0   F    T  1.00D+00 0.00000000 0.00000000 0.00000000 0.00000000 -215.2429948 ====
 Running external command "python3 -u ../pes/h4cfo_pes.py R"
         input file       "/home/jh-li/scratch/g16/Gau-332544.EIn"
         output file      "/home/jh-li/scratch/g16/Gau-332544.EOu"
         message file     "/home/jh-li/scratch/g16/Gau-332544.EMs"
         fchk file        "/home/jh-li/scratch/g16/Gau-332544.EFC"
         mat. el file     "/home/jh-li/scratch/g16/Gau-332544.EUF"
 Recovered energy= -215.242994822     dipole=      0.000000000000      0.000000000000      0.000000000000
 Energy=    -215.242995     NIter=   0.
 Dipole moment=       0.000000       0.000000       0.000000
 Leave Link  402 at Wed Mar  6 21:36:33 2024, MaxMem=   104857600 cpu:               0.0 elap:               1.0
 (Enter /opt/g16/l716.exe)
 Dipole        = 0.00000000D+00 0.00000000D+00 0.00000000D+00
 -------------------------------------------------------------------
 Center     Atomic                   Forces (Hartrees/Bohr)
 Number     Number              X              Y              Z
 -------------------------------------------------------------------
      1        1           0.000543314    0.000148522   -0.000777978
      2        1          -0.000041057    0.000012464   -0.000007851
      3        1          -0.000021042    0.000011557    0.000064710
      4        1          -0.000049562   -0.000018616   -0.000013839
      5        6           0.000062264    0.000090596   -0.000211983
      6        9          -0.000375461   -0.000248906    0.000413327
      7        8          -0.000116658   -0.000004578    0.000509166
 -------------------------------------------------------------------
 Cartesian Forces:  Max     0.000777978 RMS     0.000279099
 Force constants in Cartesian coordinates: 
                1             2             3             4             5 
      1  0.467315D-01
      2  0.529604D-01  0.237162D+00
      3  0.733280D-01  0.118251D+00  0.550058D-01
      4  0.710165D-03 -0.250151D-02 -0.666410D-02  0.917110D-01
      5  0.130406D-03 -0.133303D-02  0.676124D-03  0.393285D-01  0.919809D-01
      6  0.163669D-02  0.395141D-03 -0.422293D-03 -0.780618D-01 -0.101495D+00
      7 -0.392699D-02 -0.312502D-02 -0.311932D-02 -0.475984D-02 -0.978302D-02
      8 -0.100710D-02  0.172446D-02  0.481441D-02 -0.260542D-02 -0.103768D-01
      9 -0.610842D-02 -0.257407D-02  0.235682D-02  0.132228D-01  0.247362D-01
     10  0.483593D-02  0.130562D-02 -0.337909D-02 -0.919123D-02  0.672529D-02
     11 -0.186680D-02 -0.402684D-03 -0.161453D-02 -0.109676D-01  0.997784D-02
     12 -0.822342D-03 -0.157236D-03  0.653886D-03  0.194275D-01 -0.179452D-01
     13 -0.145951D-01  0.782568D-02 -0.163538D-02 -0.795677D-01 -0.412452D-01
     14 -0.239013D-01  0.688903D-02 -0.123621D-01 -0.401426D-01 -0.923410D-01
     15 -0.118459D-01  0.313134D-02 -0.295268D-01  0.811453D-01  0.895989D-01
     16 -0.937213D-02 -0.293266D-01 -0.318640D-01 -0.363050D-03  0.437588D-03
     17  0.251256D-02 -0.184036D-01 -0.150768D-01  0.192216D-03 -0.670375D-03
     18  0.269930D-02  0.354917D-01  0.313522D-01  0.102455D-02 -0.549771D-03
     19 -0.243860D-01 -0.271472D-01 -0.266809D-01  0.147314D-02  0.440365D-02
     20 -0.288296D-01 -0.225632D+00 -0.946789D-01  0.166951D-01  0.277099D-02
     21 -0.588714D-01 -0.154545D+00 -0.594265D-01 -0.300834D-01  0.498520D-02
                6             7             8             9            10 
      6  0.262770D+00
      7 -0.321407D-03  0.101610D+00
      8 -0.820865D-02  0.106075D+00  0.293292D+00
      9  0.425058D-02  0.282392D-01  0.425611D-01  0.612392D-01
     10  0.616971D-02  0.100088D-01 -0.729187D-02 -0.586292D-02  0.183744D+00
     11  0.776177D-02  0.190440D-01 -0.154593D-01 -0.112825D-01 -0.122631D+00
     12 -0.919292D-02  0.210622D-02 -0.766669D-03  0.742037D-03 -0.787119D-01
     13  0.852125D-01 -0.856871D-01 -0.980543D-01 -0.107494D-01 -0.158821D+00
     14  0.925115D-01 -0.907955D-01 -0.279233D+00 -0.375147D-01  0.103610D+00
     15 -0.229192D+00 -0.172524D-01 -0.327927D-01 -0.508686D-01  0.685721D-01
     16 -0.153230D-02  0.108061D-02 -0.597991D-03  0.112776D-02 -0.253565D-02
     17  0.375303D-03 -0.113121D-03  0.141982D-02  0.123938D-02 -0.115106D-02
     18 -0.831919D-03  0.506774D-03  0.235366D-03  0.256182D-03  0.282025D-02
     19 -0.131031D-01 -0.183023D-01  0.348740D-02 -0.198712D-01 -0.280160D-01
     20  0.865343D-02 -0.213199D-01  0.862006D-02 -0.171736D-01  0.194366D-01
     21 -0.273967D-01 -0.101700D-01 -0.584391D-02 -0.179888D-01  0.103814D-01
               11            12            13            14            15 
     11  0.162444D+00
     12  0.802898D-01  0.116164D+00
     13  0.110735D+00  0.859015D-01  0.503685D+00
     14 -0.155230D+00 -0.812371D-01  0.112851D-01  0.601155D+00
     15 -0.774886D-01 -0.109812D+00 -0.654520D-01  0.258069D-01  0.515356D+00
     16  0.658757D-04 -0.348222D-02  0.460150D-02  0.348836D-02 -0.648210D-02
     17 -0.107966D-02  0.197570D-02 -0.278214D-02  0.320108D-03 -0.427738D-02
     18 -0.660297D-03  0.256160D-02  0.110374D-02 -0.257966D-02 -0.625891D-02
     19  0.562121D-02 -0.244264D-01 -0.169693D+00  0.364627D-01 -0.486753D-01
     20 -0.237791D-03  0.178349D-01  0.122585D-01 -0.815714D-01 -0.395506D-02
     21  0.298966D-02 -0.113080D-02 -0.944022D-01  0.153803D-01 -0.896712D-01
               16            17            18            19            20 
     16  0.206555D-01
     17 -0.124600D-01  0.766490D-02
     18 -0.212456D-01  0.200249D-01  0.585562D-01
     19 -0.140680D-01  0.137974D-01  0.130827D-01  0.253015D+00
     20  0.383959D-01  0.107513D-01 -0.519650D-01 -0.366332D-01  0.285296D+00
     21  0.634643D-01 -0.426866D-02 -0.856414D-01  0.119704D+00  0.141293D+00
               21 
     21  0.281283D+00
 Leave Link  716 at Wed Mar  6 21:36:33 2024, MaxMem=   104857600 cpu:               0.0 elap:               0.0
 (Enter /opt/g16/l123.exe)
 IRC-IRC-IRC-IRC-IRC-IRC-IRC-IRC-IRC-IRC-IRC-IRC-IRC-IRC-IRC-IRC-IRC-IRC
 Pt  1 Step number   1 out of a maximum of  10
 Using modified Bulirsch-Stoer corrector integration.
   Using distance weighted interpolants to fit PES.
 PreDWI: IReCr0= 2 IReCr1= 1 IReCr2= 1 IReCr3= 1
 Modified Bulirsch-Stoer Extrapolation Cycles:
    EPS =    0.000010000000000
    Cycle     1 NS=    48
      PEZero:  N= 2 I= 1 D=  8.00D-05 Err=  1.85D-04
    Cycle     2 NS=    64 Truncation Error =  0.000184773
      PEZero:  N= 3 I= 2 D=  8.00D-05 Err=  1.23D-04
      PEZero:  N= 3 I= 1 D=  1.60D-04 Err=  1.84D-08
    Cycle     3 NS=    96 Truncation Error =  0.000000018
 BS completed in    3 cycles and     208 integration steps.
 Maximum DWI energy   std dev =  0.000000160 at pt     2
 Maximum DWI gradient std dev =  0.025042475 at pt    32
 SUMMARY OF CORRECTOR INTEGRATION:
   Predictor End Point Energy =  -215.242995
   Old End Point Energy       =  -215.242995
   Corrected End Point Energy =  -215.242995
   Predictor End-Start Dist.  =     0.030724
   Old End-Start Dist.        =     0.030724
   New End-Start Dist.        =     0.030716
   New End-Old End Dist.      =     0.000525
 CORRECTOR INTEGRATION CONVERGENCE:
   Recorrection delta-x convergence threshold:    0.010000
   Delta-x Convergence Met
 Point Number:   1          Path Number:   1
                    CURRENT STRUCTURE
                Cartesian Coordinates (Ang):                
 ---------------------------------------------------------------------
 Center     Atomic                     Coordinates (Angstroms)
 Number     Number                        X           Y           Z
 ---------------------------------------------------------------------
      1          1                   -0.721646   -0.448541   -0.232500
      2          1                    0.143352   -0.330745    2.198774
      3          1                    0.933954    1.079102    1.453424
      4          1                    1.207302   -0.563118    0.787756
      5          6                    0.488670    0.105945    1.257132
      6          9                    0.145140   -0.320733   -1.365970
      7          8                   -0.637493    0.318060    0.414197
 ---------------------------------------------------------------------
   CHANGE IN THE REACTION COORDINATE =    0.03072
   NET REACTION COORDINATE UP TO THIS POINT =    0.03072
  # OF POINTS ALONG THE PATH =   1
  # OF STEPS =   1

 Calculating another point on the path.
 Point Number  2 in FORWARD path direction.
 Using LQA Reaction Path Following.
   LQA: T_Est iteration completed in    3 iterations.
 IRC-IRC-IRC-IRC-IRC-IRC-IRC-IRC-IRC-IRC-IRC-IRC-IRC-IRC-IRC-IRC-IRC-IRC
 Leave Link  123 at Wed Mar  6 21:36:33 2024, MaxMem=   104857600 cpu:               0.0 elap:               0.0
 (Enter /opt/g16/l202.exe)
                          Input orientation:                          
 ---------------------------------------------------------------------
 Center     Atomic      Atomic             Coordinates (Angstroms)
 Number     Number       Type             X           Y           Z
 ---------------------------------------------------------------------
      1          1           0       -0.712606   -0.444832   -0.244899
      2          1           0        0.142658   -0.330611    2.198362
      3          1           0        0.933840    1.079295    1.454341
      4          1           0        1.206699   -0.563417    0.787619
      5          6           0        0.488725    0.106085    1.256879
      6          9           0        0.144804   -0.320956   -1.365598
      7          8           0       -0.637614    0.317979    0.414686
 ---------------------------------------------------------------------
                    Distance matrix (angstroms):
                    1          2          3          4          5
     1  H    0.000000
     2  H    2.591148   0.000000
     3  H    2.814456   1.779711   0.000000
     4  H    2.182633   1.782295   1.793732   0.000000
     5  C    2.000511   1.094008   1.088235   1.088083   0.000000
     6  F    1.416497   3.563974   3.245819   2.413039   2.679186
     7  O    1.011215   2.052070   2.032229   2.077842   1.422262
                    6          7
     6  F    0.000000
     7  O    2.046907   0.000000
 Symmetry turned off by external request.
 Stoichiometry    CH4FO(2)
 Framework group  C1[X(CH4FO)]
 Deg. of freedom    15
 Full point group                 C1      NOp   1
 Rotational constants (GHZ):          32.4635667           7.2849941           6.2371520
 Leave Link  202 at Wed Mar  6 21:36:33 2024, MaxMem=   104857600 cpu:               0.0 elap:               0.0
 (Enter /opt/g16/l301.exe)
 Standard basis: STO-3G (5D, 7F)
 Ernie: Thresh=  0.10000D-02 Tol=  0.10000D-05 Strict=F.
    19 basis functions,    57 primitive gaussians,    19 cartesian basis functions
    14 alpha electrons       13 beta electrons
       nuclear repulsion energy        77.4973467560 Hartrees.
 IExCor=    0 DFT=F Ex=HF Corr=None ExCW=0 ScaHFX=  1.000000
 ScaDFX=  1.000000  1.000000  1.000000  1.000000 ScalE2=  1.000000  1.000000
 IRadAn=      5 IRanWt=     -1 IRanGd=            0 ICorTp=0 IEmpDi=  4
 NAtoms=    7 NActive=    7 NUniq=    7 SFac= 1.00D+00 NAtFMM=   60 NAOKFM=F Big=F
 Integral buffers will be    131072 words long.
 Raffenetti 2 integral format.
 Two-electron integral symmetry is turned off.
 Leave Link  301 at Wed Mar  6 21:36:33 2024, MaxMem=   104857600 cpu:               0.1 elap:               0.1
 (Enter /opt/g16/l402.exe)
 External calculation of energy, first and second derivatives.
 Running external command "python3 -u ../pes/h4cfo_pes.py R"
         input file       "/home/jh-li/scratch/g16/Gau-332544.EIn"
         output file      "/home/jh-li/scratch/g16/Gau-332544.EOu"
         message file     "/home/jh-li/scratch/g16/Gau-332544.EMs"
         fchk file        "/home/jh-li/scratch/g16/Gau-332544.EFC"
         mat. el file     "/home/jh-li/scratch/g16/Gau-332544.EUF"
 Recovered energy= -215.243042051     dipole=      0.000000000000      0.000000000000      0.000000000000
 NRF= 0 NRA=   0 NVA=   0 HaveQM=F NVQ=       0
 Convergence limit is  0.750E-04 MaxStp= 10000 StMxLn= 3.00D-04 StpMin= 1.00D-06.
 Convergence criteria             0.00011250 0.00007500 0.00045000 0.00030000
  Step  NS  ND Rises OKQ   Scale  Max. Force  RMS Force Max. Disp.  RMS Disp.     Energy   Flag
     1   0   0   F    T  1.00D+00 0.00000000 0.00000000 0.00000000 0.00000000 -215.2430421 ====
 Running external command "python3 -u ../pes/h4cfo_pes.py R"
         input file       "/home/jh-li/scratch/g16/Gau-332544.EIn"
         output file      "/home/jh-li/scratch/g16/Gau-332544.EOu"
         message file     "/home/jh-li/scratch/g16/Gau-332544.EMs"
         fchk file        "/home/jh-li/scratch/g16/Gau-332544.EFC"
         mat. el file     "/home/jh-li/scratch/g16/Gau-332544.EUF"
 Recovered energy= -215.243042051     dipole=      0.000000000000      0.000000000000      0.000000000000
 Energy=    -215.243042     NIter=   0.
 Dipole moment=       0.000000       0.000000       0.000000
 Leave Link  402 at Wed Mar  6 21:36:34 2024, MaxMem=   104857600 cpu:               0.0 elap:               1.0
 (Enter /opt/g16/l716.exe)
 Dipole        = 0.00000000D+00 0.00000000D+00 0.00000000D+00
 -------------------------------------------------------------------
 Center     Atomic                   Forces (Hartrees/Bohr)
 Number     Number              X              Y              Z
 -------------------------------------------------------------------
      1        1           0.001197338    0.000420628   -0.001708427
      2        1          -0.000094194    0.000020449   -0.000047727
      3        1          -0.000013156    0.000027721    0.000119264
      4        1          -0.000080355   -0.000038606   -0.000026730
      5        6           0.000063145    0.000210958   -0.000385856
      6        9          -0.000840105   -0.000561127    0.000916791
      7        8          -0.000231094   -0.000088719    0.001107898
 -------------------------------------------------------------------
 Cartesian Forces:  Max     0.001708427 RMS     0.000613805
 Force constants in Cartesian coordinates: 
                1             2             3             4             5 
      1  0.452458D-01
      2  0.517928D-01  0.227259D+00
      3  0.753399D-01  0.110178D+00  0.444415D-01
      4  0.789958D-03 -0.260428D-02 -0.692436D-02  0.917078D-01
      5  0.651569D-04 -0.132185D-02  0.915729D-03  0.394064D-01  0.918563D-01
      6  0.143378D-02  0.280831D-03 -0.236837D-03 -0.783423D-01 -0.101530D+00
      7 -0.393323D-02 -0.339537D-02 -0.320451D-02 -0.466177D-02 -0.963699D-02
      8 -0.130373D-02  0.156925D-02  0.488235D-02 -0.264562D-02 -0.104407D-01
      9 -0.620166D-02 -0.269023D-02  0.236510D-02  0.135018D-01  0.248028D-01
     10  0.502686D-02  0.143063D-02 -0.342321D-02 -0.925766D-02  0.684264D-02
     11 -0.189085D-02 -0.605918D-03 -0.163600D-02 -0.110892D-01  0.996157D-02
     12 -0.471456D-03 -0.315241D-03 -0.464005D-05  0.196473D-01 -0.180167D-01
     13 -0.141254D-01  0.717853D-02 -0.273242D-02 -0.794365D-01 -0.415506D-01
     14 -0.233723D-01  0.727497D-02 -0.119638D-01 -0.398267D-01 -0.919788D-01
     15 -0.115786D-01  0.260322D-02 -0.299029D-01  0.806875D-01  0.897318D-01
     16 -0.947930D-02 -0.309436D-01 -0.348173D-01 -0.266009D-03  0.446745D-03
     17  0.324780D-02 -0.198230D-01 -0.168774D-01  0.737080D-04 -0.677421D-03
     18  0.208319D-02  0.373665D-01  0.330785D-01  0.769504D-03 -0.641571D-03
     19 -0.235263D-01 -0.234679D-01 -0.242548D-01  0.113674D-02  0.442386D-02
     20 -0.285405D-01 -0.214349D+00 -0.854889D-01  0.166842D-01  0.260925D-02
     21 -0.605901D-01 -0.147429D+00 -0.497428D-01 -0.293278D-01  0.474474D-02
                6             7             8             9            10 
      6  0.262415D+00
      7 -0.401001D-03  0.101243D+00
      8 -0.872496D-02  0.105914D+00  0.292898D+00
      9  0.406068D-02  0.282331D-01  0.428369D-01  0.610734D-01
     10  0.614964D-02  0.997211D-02 -0.737345D-02 -0.572133D-02  0.183836D+00
     11  0.786505D-02  0.191791D-01 -0.155675D-01 -0.111454D-01 -0.122869D+00
     12 -0.905997D-02  0.223892D-02 -0.659426D-03  0.826362D-03 -0.787955D-01
     13  0.860113D-01 -0.854064D-01 -0.973363D-01 -0.109240D-01 -0.158690D+00
     14  0.930130D-01 -0.912542D-01 -0.278501D+00 -0.383669D-01  0.103785D+00
     15 -0.228625D+00 -0.172969D-01 -0.325808D-01 -0.501660D-01  0.683875D-01
     16 -0.139049D-02  0.118541D-02 -0.608345D-03  0.127934D-02 -0.259403D-02
     17  0.426026D-03 -0.938949D-04  0.159599D-02  0.116829D-02 -0.125117D-02
     18 -0.101567D-02  0.415916D-03  0.480739D-03 -0.839682D-04  0.286488D-02
     19 -0.134605D-01 -0.183762D-01  0.335897D-02 -0.201696D-01 -0.282687D-01
     20  0.866338D-02 -0.207304D-01  0.843259D-02 -0.166136D-01  0.194388D-01
     21 -0.275550D-01 -0.999706D-02 -0.623738D-02 -0.180890D-01  0.105267D-01
               11            12            13            14            15 
     11  0.162935D+00
     12  0.803428D-01  0.116032D+00
     13  0.110822D+00  0.856783D-01  0.502185D+00
     14 -0.155376D+00 -0.813032D-01  0.106190D-01  0.598844D+00
     15 -0.778045D-01 -0.109546D+00 -0.663122D-01  0.262258D-01  0.512083D+00
     16  0.132408D-03 -0.345676D-02  0.446641D-02  0.356352D-02 -0.679545D-02
     17 -0.112708D-02  0.164083D-02 -0.306951D-02  0.286502D-03 -0.408221D-02
     18 -0.806793D-03  0.226140D-02  0.130799D-02 -0.249414D-02 -0.572638D-02
     19  0.571524D-02 -0.248489D-01 -0.169073D+00  0.364927D-01 -0.470821D-01
     20 -0.207792D-03  0.183048D-01  0.133591D-01 -0.805605D-01 -0.406973D-02
     21  0.318098D-02 -0.522800D-03 -0.930488D-01  0.148940D-01 -0.880870D-01
               16            17            18            19            20 
     16  0.213028D-01
     17 -0.130810D-01  0.798680D-02
     18 -0.219193D-01  0.207947D-01  0.610341D-01
     19 -0.146170D-01  0.141694D-01  0.144694D-01  0.252747D+00
     20  0.404935D-01  0.117611D-01 -0.547023D-01 -0.407007D-01  0.272312D+00
     21  0.670870D-01 -0.307717D-02 -0.895566D-01  0.115376D+00  0.133914D+00
               21 
     21  0.273578D+00
 Leave Link  716 at Wed Mar  6 21:36:34 2024, MaxMem=   104857600 cpu:               0.0 elap:               0.0
 (Enter /opt/g16/l123.exe)
 IRC-IRC-IRC-IRC-IRC-IRC-IRC-IRC-IRC-IRC-IRC-IRC-IRC-IRC-IRC-IRC-IRC-IRC
 Pt  2 Step number   1 out of a maximum of  10
 Using modified Bulirsch-Stoer corrector integration.
   Using distance weighted interpolants to fit PES.
 PreDWI: IReCr0= 2 IReCr1= 1 IReCr2= 1 IReCr3= 1
 Modified Bulirsch-Stoer Extrapolation Cycles:
    EPS =    0.000010000000000
    Cycle     1 NS=    48
      PEZero:  N= 2 I= 1 D=  1.60D-04 Err=  9.23D-07
    Cycle     2 NS=    64 Truncation Error =  0.000000923
 BS completed in    2 cycles and     112 integration steps.
 Maximum DWI energy   std dev =  0.000000172 at pt    24
 Maximum DWI gradient std dev =  0.010996571 at pt    14
 SUMMARY OF CORRECTOR INTEGRATION:
   Predictor End Point Energy =  -215.243042
   Old End Point Energy       =  -215.243042
   Corrected End Point Energy =  -215.243042
   Predictor End-Start Dist.  =     0.030713
   Old End-Start Dist.        =     0.030713
   New End-Start Dist.        =     0.030712
   New End-Old End Dist.      =     0.000188
 CORRECTOR INTEGRATION CONVERGENCE:
   Recorrection delta-x convergence threshold:    0.010000
   Delta-x Convergence Met
 Point Number:   2          Path Number:   1
                    CURRENT STRUCTURE
                Cartesian Coordinates (Ang):                
 ---------------------------------------------------------------------
 Center     Atomic                     Coordinates (Angstroms)
 Number     Number                        X           Y           Z
 ---------------------------------------------------------------------
      1          1                   -0.712618   -0.444917   -0.244933
      2          1                    0.142659   -0.330606    2.198371
      3          1                    0.933839    1.079298    1.454335
      4          1                    1.206698   -0.563413    0.787605
      5          6                    0.488723    0.106083    1.256881
      6          9                    0.144804   -0.320956   -1.365600
      7          8                   -0.637612    0.317984    0.414690
 ---------------------------------------------------------------------
   CHANGE IN THE REACTION COORDINATE =    0.03071
   NET REACTION COORDINATE UP TO THIS POINT =    0.06143
  # OF POINTS ALONG THE PATH =   2
  # OF STEPS =   1

 Calculating another point on the path.
 Point Number  3 in FORWARD path direction.
 Using LQA Reaction Path Following.
   LQA: T_Est iteration completed in    3 iterations.
 IRC-IRC-IRC-IRC-IRC-IRC-IRC-IRC-IRC-IRC-IRC-IRC-IRC-IRC-IRC-IRC-IRC-IRC
 Leave Link  123 at Wed Mar  6 21:36:34 2024, MaxMem=   104857600 cpu:               0.0 elap:               0.0
 (Enter /opt/g16/l202.exe)
                          Input orientation:                          
 ---------------------------------------------------------------------
 Center     Atomic      Atomic             Coordinates (Angstroms)
 Number     Number       Type             X           Y           Z
 ---------------------------------------------------------------------
      1          1           0       -0.703611   -0.441432   -0.257431
      2          1           0        0.141963   -0.330449    2.198008
      3          1           0        0.933733    1.079492    1.455213
      4          1           0        1.206083   -0.563693    0.787423
      5          6           0        0.488761    0.106213    1.256644
      6          9           0        0.144470   -0.321179   -1.365238
      7          8           0       -0.637722    0.317924    0.415195
 ---------------------------------------------------------------------
                    Distance matrix (angstroms):
                    1          2          3          4          5
     1  H    0.000000
     2  H    2.599325   0.000000
     3  H    2.815538   1.779487   0.000000
     4  H    2.180275   1.782275   1.794484   0.000000
     5  C    2.003519   1.094124   1.088440   1.087885   0.000000
     6  F    1.400335   3.563258   3.246499   2.412423   2.678705
     7  O    1.016557   2.051028   2.032510   2.077359   1.421908
                    6          7
     6  F    0.000000
     7  O    2.047002   0.000000
 Symmetry turned off by external request.
 Stoichiometry    CH4FO(2)
 Framework group  C1[X(CH4FO)]
 Deg. of freedom    15
 Full point group                 C1      NOp   1
 Rotational constants (GHZ):          32.5054807           7.2866306           6.2383973
 Leave Link  202 at Wed Mar  6 21:36:34 2024, MaxMem=   104857600 cpu:               0.0 elap:               0.0
 (Enter /opt/g16/l301.exe)
 Standard basis: STO-3G (5D, 7F)
 Ernie: Thresh=  0.10000D-02 Tol=  0.10000D-05 Strict=F.
    19 basis functions,    57 primitive gaussians,    19 cartesian basis functions
    14 alpha electrons       13 beta electrons
       nuclear repulsion energy        77.5181061897 Hartrees.
 IExCor=    0 DFT=F Ex=HF Corr=None ExCW=0 ScaHFX=  1.000000
 ScaDFX=  1.000000  1.000000  1.000000  1.000000 ScalE2=  1.000000  1.000000
 IRadAn=      5 IRanWt=     -1 IRanGd=            0 ICorTp=0 IEmpDi=  4
 NAtoms=    7 NActive=    7 NUniq=    7 SFac= 1.00D+00 NAtFMM=   60 NAOKFM=F Big=F
 Integral buffers will be    131072 words long.
 Raffenetti 2 integral format.
 Two-electron integral symmetry is turned off.
 Leave Link  301 at Wed Mar  6 21:36:34 2024, MaxMem=   104857600 cpu:               0.1 elap:               0.1
 (Enter /opt/g16/l402.exe)
 External calculation of energy, first and second derivatives.
 Running external command "python3 -u ../pes/h4cfo_pes.py R"
         input file       "/home/jh-li/scratch/g16/Gau-332544.EIn"
         output file      "/home/jh-li/scratch/g16/Gau-332544.EOu"
         message file     "/home/jh-li/scratch/g16/Gau-332544.EMs"
         fchk file        "/home/jh-li/scratch/g16/Gau-332544.EFC"
         mat. el file     "/home/jh-li/scratch/g16/Gau-332544.EUF"
 Recovered energy= -215.243129329     dipole=      0.000000000000      0.000000000000      0.000000000000
 NRF= 0 NRA=   0 NVA=   0 HaveQM=F NVQ=       0
 Convergence limit is  0.750E-04 MaxStp= 10000 StMxLn= 3.00D-04 StpMin= 1.00D-06.
 Convergence criteria             0.00011250 0.00007500 0.00045000 0.00030000
  Step  NS  ND Rises OKQ   Scale  Max. Force  RMS Force Max. Disp.  RMS Disp.     Energy   Flag
     1   0   0   F    T  1.00D+00 0.00000000 0.00000000 0.00000000 0.00000000 -215.2431293 ====
 Running external command "python3 -u ../pes/h4cfo_pes.py R"
         input file       "/home/jh-li/scratch/g16/Gau-332544.EIn"
         output file      "/home/jh-li/scratch/g16/Gau-332544.EOu"
         message file     "/home/jh-li/scratch/g16/Gau-332544.EMs"
         fchk file        "/home/jh-li/scratch/g16/Gau-332544.EFC"
         mat. el file     "/home/jh-li/scratch/g16/Gau-332544.EUF"
 Recovered energy= -215.243129329     dipole=      0.000000000000      0.000000000000      0.000000000000
 Energy=    -215.243129     NIter=   0.
 Dipole moment=       0.000000       0.000000       0.000000
 Leave Link  402 at Wed Mar  6 21:36:35 2024, MaxMem=   104857600 cpu:               0.0 elap:               1.0
 (Enter /opt/g16/l716.exe)
 Dipole        = 0.00000000D+00 0.00000000D+00 0.00000000D+00
 -------------------------------------------------------------------
 Center     Atomic                   Forces (Hartrees/Bohr)
 Number     Number              X              Y              Z
 -------------------------------------------------------------------
      1        1           0.001985737    0.000686266   -0.002820883
      2        1          -0.000153591    0.000038939   -0.000072966
      3        1          -0.000022853    0.000043606    0.000190335
      4        1          -0.000136482   -0.000059009   -0.000049565
      5        6           0.000076107    0.000328841   -0.000606356
      6        9          -0.001386741   -0.000929919    0.001482323
      7        8          -0.000360904   -0.000117135    0.001852133
 -------------------------------------------------------------------
 Cartesian Forces:  Max     0.002820883 RMS     0.001011980
 Force constants in Cartesian coordinates: 
                1             2             3             4             5 
      1  0.437266D-01
      2  0.508083D-01  0.217358D+00
      3  0.775319D-01  0.101793D+00  0.334817D-01
      4  0.858855D-03 -0.267796D-02 -0.711632D-02  0.916822D-01
      5 -0.234400D-04 -0.130232D-02  0.118856D-02  0.394885D-01  0.917011D-01
      6  0.124280D-02  0.146029D-03 -0.943783D-04 -0.786461D-01 -0.101580D+00
      7 -0.391771D-02 -0.365773D-02 -0.330043D-02 -0.456566D-02 -0.946818D-02
      8 -0.155943D-02  0.138311D-02  0.483758D-02 -0.268016D-02 -0.104964D-01
      9 -0.628333D-02 -0.278362D-02  0.237589D-02  0.137898D-01  0.248609D-01
     10  0.522092D-02  0.155131D-02 -0.348743D-02 -0.932279D-02  0.696225D-02
     11 -0.193700D-02 -0.814390D-03 -0.159586D-02 -0.112097D-01  0.994269D-02
     12 -0.117768D-03 -0.434624D-03 -0.587965D-03  0.198793D-01 -0.180735D-01
     13 -0.136512D-01  0.651518D-02 -0.379199D-02 -0.792584D-01 -0.418569D-01
     14 -0.227895D-01  0.769840D-02 -0.115783D-01 -0.395211D-01 -0.915826D-01
     15 -0.113126D-01  0.205210D-02 -0.301647D-01  0.802146D-01  0.898955D-01
     16 -0.964234D-02 -0.325173D-01 -0.377557D-01 -0.153655D-03  0.461865D-03
     17  0.403047D-02 -0.212822D-01 -0.186630D-01 -0.359086D-04 -0.673627D-03
     18  0.149140D-02  0.391781D-01  0.345386D-01  0.498233D-03 -0.737634D-03
     19 -0.225953D-01 -0.200314D-01 -0.220991D-01  0.772048D-03  0.443326D-02
     20 -0.285311D-01 -0.203038D+00 -0.759719D-01  0.166348D-01  0.241930D-02
     21 -0.625391D-01 -0.139956D+00 -0.395458D-01 -0.286071D-01  0.445382D-02
                6             7             8             9            10 
      6  0.262052D+00
      7 -0.490336D-03  0.100875D+00
      8 -0.926475D-02  0.105762D+00  0.292464D+00
      9  0.386650D-02  0.282134D-01  0.430885D-01  0.608622D-01
     10  0.610630D-02  0.993355D-02 -0.747081D-02 -0.557757D-02  0.183897D+00
     11  0.796820D-02  0.193198D-01 -0.156971D-01 -0.110038D-01 -0.123074D+00
     12 -0.892868D-02  0.236844D-02 -0.573528D-03  0.910287D-03 -0.788926D-01
     13  0.868563D-01 -0.851263D-01 -0.966479D-01 -0.110929D-01 -0.158542D+00
     14  0.935747D-01 -0.917664D-01 -0.277685D+00 -0.392126D-01  0.103969D+00
     15 -0.228062D+00 -0.173325D-01 -0.323146D-01 -0.493942D-01  0.682368D-01
     16 -0.125035D-02  0.128900D-02 -0.641440D-03  0.143510D-02 -0.265971D-02
     17  0.464671D-03 -0.794461D-04  0.174756D-02  0.109384D-02 -0.136327D-02
     18 -0.119809D-02  0.324617D-03  0.747088D-03 -0.434240D-03  0.291258D-02
     19 -0.138183D-01 -0.184642D-01  0.324376D-02 -0.204869D-01 -0.285020D-01
     20  0.868474D-02 -0.201272D-01  0.827116D-02 -0.160512D-01  0.194294D-01
     21 -0.276539D-01 -0.979527D-02 -0.652439D-02 -0.182007D-01  0.106896D-01
               11            12            13            14            15 
     11  0.163400D+00
     12  0.804007D-01  0.115900D+00
     13  0.110903D+00  0.854864D-01  0.500603D+00
     14 -0.155476D+00 -0.813819D-01  0.995339D-02  0.596312D+00
     15 -0.781221D-01 -0.109232D+00 -0.672356D-01  0.265258D-01  0.508557D+00
     16  0.219201D-03 -0.340497D-02  0.436066D-02  0.361337D-02 -0.708578D-02
     17 -0.115691D-02  0.130586D-02 -0.333790D-02  0.242373D-03 -0.384114D-02
     18 -0.976451D-03  0.190237D-02  0.144058D-02 -0.235894D-02 -0.517628D-02
     19  0.577869D-02 -0.253273D-01 -0.168466D+00  0.365485D-01 -0.454751D-01
     20 -0.186744D-03  0.187507D-01  0.144932D-01 -0.795190D-01 -0.417183D-02
     21  0.332627D-02  0.229482D-04 -0.916811D-01  0.144358D-01 -0.864938D-01
               16            17            18            19            20 
     16  0.220453D-01
     17 -0.137145D-01  0.836970D-02
     18 -0.226929D-01  0.215504D-01  0.637591D-01
     19 -0.152416D-01  0.144954D-01  0.160172D-01  0.252519D+00
     20  0.425821D-01  0.127563D-01 -0.574055D-01 -0.444767D-01  0.259294D+00
     21  0.707433D-01 -0.191670D-02 -0.934025D-01  0.111218D+00  0.126171D+00
               21 
     21  0.265294D+00
 Leave Link  716 at Wed Mar  6 21:36:35 2024, MaxMem=   104857600 cpu:               0.0 elap:               0.0
 (Enter /opt/g16/l123.exe)
 IRC-IRC-IRC-IRC-IRC-IRC-IRC-IRC-IRC-IRC-IRC-IRC-IRC-IRC-IRC-IRC-IRC-IRC
 Pt  3 Step number   1 out of a maximum of  10
 Using modified Bulirsch-Stoer corrector integration.
   Using distance weighted interpolants to fit PES.
 PreDWI: IReCr0= 2 IReCr1= 1 IReCr2= 1 IReCr3= 1
 Modified Bulirsch-Stoer Extrapolation Cycles:
    EPS =    0.000010000000000
    Cycle     1 NS=    48
      PEZero:  N= 2 I= 1 D=  1.60D-04 Err=  1.63D-06
    Cycle     2 NS=    64 Truncation Error =  0.000001633
 BS completed in    2 cycles and     112 integration steps.
 Maximum DWI energy   std dev =  0.000000175 at pt    24
 Maximum DWI gradient std dev =  0.005879618 at pt    15
 SUMMARY OF CORRECTOR INTEGRATION:
   Predictor End Point Energy =  -215.243129
   Old End Point Energy       =  -215.243129
   Corrected End Point Energy =  -215.243129
   Predictor End-Start Dist.  =     0.030714
   Old End-Start Dist.        =     0.030714
   New End-Start Dist.        =     0.030714
   New End-Old End Dist.      =     0.000153
 CORRECTOR INTEGRATION CONVERGENCE:
   Recorrection delta-x convergence threshold:    0.010000
   Delta-x Convergence Met
 Point Number:   3          Path Number:   1
                    CURRENT STRUCTURE
                Cartesian Coordinates (Ang):                
 ---------------------------------------------------------------------
 Center     Atomic                     Coordinates (Angstroms)
 Number     Number                        X           Y           Z
 ---------------------------------------------------------------------
      1          1                   -0.703624   -0.441501   -0.257460
      2          1                    0.141964   -0.330446    2.198013
      3          1                    0.933733    1.079493    1.455209
      4          1                    1.206084   -0.563690    0.787415
      5          6                    0.488759    0.106212    1.256645
      6          9                    0.144471   -0.321178   -1.365239
      7          8                   -0.637721    0.317929    0.415198
 ---------------------------------------------------------------------
   CHANGE IN THE REACTION COORDINATE =    0.03071
   NET REACTION COORDINATE UP TO THIS POINT =    0.09214
  # OF POINTS ALONG THE PATH =   3
  # OF STEPS =   1

 Calculating another point on the path.
 Point Number  4 in FORWARD path direction.
 Using LQA Reaction Path Following.
   LQA: T_Est iteration completed in    3 iterations.
 IRC-IRC-IRC-IRC-IRC-IRC-IRC-IRC-IRC-IRC-IRC-IRC-IRC-IRC-IRC-IRC-IRC-IRC
 Leave Link  123 at Wed Mar  6 21:36:35 2024, MaxMem=   104857600 cpu:               0.0 elap:               0.0
 (Enter /opt/g16/l202.exe)
                          Input orientation:                          
 ---------------------------------------------------------------------
 Center     Atomic      Atomic             Coordinates (Angstroms)
 Number     Number       Type             X           Y           Z
 ---------------------------------------------------------------------
      1          1           0       -0.694639   -0.438275   -0.270049
      2          1           0        0.141277   -0.330264    2.197692
      3          1           0        0.933625    1.079687    1.456055
      4          1           0        1.205461   -0.563947    0.787189
      5          6           0        0.488785    0.106334    1.256419
      6          9           0        0.144139   -0.321401   -1.364887
      7          8           0       -0.637823    0.317889    0.415718
 ---------------------------------------------------------------------
                    Distance matrix (angstroms):
                    1          2          3          4          5
     1  H    0.000000
     2  H    2.607713   0.000000
     3  H    2.816893   1.779271   0.000000
     4  H    2.178056   1.782305   1.795219   0.000000
     5  C    2.006788   1.094246   1.088648   1.087694   0.000000
     6  F    1.384152   3.562591   3.247160   2.411777   2.678243
     7  O    1.022393   2.050007   2.032753   2.076854   1.421542
                    6          7
     6  F    0.000000
     7  O    2.047122   0.000000
 Symmetry turned off by external request.
 Stoichiometry    CH4FO(2)
 Framework group  C1[X(CH4FO)]
 Deg. of freedom    15
 Full point group                 C1      NOp   1
 Rotational constants (GHZ):          32.5469180           7.2880766           6.2395374
 Leave Link  202 at Wed Mar  6 21:36:35 2024, MaxMem=   104857600 cpu:               0.0 elap:               0.0
 (Enter /opt/g16/l301.exe)
 Standard basis: STO-3G (5D, 7F)
 Ernie: Thresh=  0.10000D-02 Tol=  0.10000D-05 Strict=F.
    19 basis functions,    57 primitive gaussians,    19 cartesian basis functions
    14 alpha electrons       13 beta electrons
       nuclear repulsion energy        77.5376683091 Hartrees.
 IExCor=    0 DFT=F Ex=HF Corr=None ExCW=0 ScaHFX=  1.000000
 ScaDFX=  1.000000  1.000000  1.000000  1.000000 ScalE2=  1.000000  1.000000
 IRadAn=      5 IRanWt=     -1 IRanGd=            0 ICorTp=0 IEmpDi=  4
 NAtoms=    7 NActive=    7 NUniq=    7 SFac= 1.00D+00 NAtFMM=   60 NAOKFM=F Big=F
 Integral buffers will be    131072 words long.
 Raffenetti 2 integral format.
 Two-electron integral symmetry is turned off.
 Leave Link  301 at Wed Mar  6 21:36:35 2024, MaxMem=   104857600 cpu:               0.0 elap:               0.0
 (Enter /opt/g16/l402.exe)
 External calculation of energy, first and second derivatives.
 Running external command "python3 -u ../pes/h4cfo_pes.py R"
         input file       "/home/jh-li/scratch/g16/Gau-332544.EIn"
         output file      "/home/jh-li/scratch/g16/Gau-332544.EOu"
         message file     "/home/jh-li/scratch/g16/Gau-332544.EMs"
         fchk file        "/home/jh-li/scratch/g16/Gau-332544.EFC"
         mat. el file     "/home/jh-li/scratch/g16/Gau-332544.EUF"
 Recovered energy= -215.243263761     dipole=      0.000000000000      0.000000000000      0.000000000000
 NRF= 0 NRA=   0 NVA=   0 HaveQM=F NVQ=       0
 Convergence limit is  0.750E-04 MaxStp= 10000 StMxLn= 3.00D-04 StpMin= 1.00D-06.
 Convergence criteria             0.00011250 0.00007500 0.00045000 0.00030000
  Step  NS  ND Rises OKQ   Scale  Max. Force  RMS Force Max. Disp.  RMS Disp.     Energy   Flag
     1   0   0   F    T  1.00D+00 0.00000000 0.00000000 0.00000000 0.00000000 -215.2432638 ====
 Running external command "python3 -u ../pes/h4cfo_pes.py R"
         input file       "/home/jh-li/scratch/g16/Gau-332544.EIn"
         output file      "/home/jh-li/scratch/g16/Gau-332544.EOu"
         message file     "/home/jh-li/scratch/g16/Gau-332544.EMs"
         fchk file        "/home/jh-li/scratch/g16/Gau-332544.EFC"
         mat. el file     "/home/jh-li/scratch/g16/Gau-332544.EUF"
 Recovered energy= -215.243263761     dipole=      0.000000000000      0.000000000000      0.000000000000
 Energy=    -215.243264     NIter=   0.
 Dipole moment=       0.000000       0.000000       0.000000
 Leave Link  402 at Wed Mar  6 21:36:36 2024, MaxMem=   104857600 cpu:               0.0 elap:               1.0
 (Enter /opt/g16/l716.exe)
 Dipole        = 0.00000000D+00 0.00000000D+00 0.00000000D+00
 -------------------------------------------------------------------
 Center     Atomic                   Forces (Hartrees/Bohr)
 Number     Number              X              Y              Z
 -------------------------------------------------------------------
      1        1           0.002902552    0.000948406   -0.004134242
      2        1          -0.000220148    0.000064211   -0.000096276
      3        1          -0.000035402    0.000062220    0.000268329
      4        1          -0.000202250   -0.000078380   -0.000082884
      5        6           0.000074228    0.000452535   -0.000847056
      6        9          -0.002017204   -0.001359628    0.002108761
      7        8          -0.000500902   -0.000097476    0.002758360
 -------------------------------------------------------------------
 Cartesian Forces:  Max     0.004134242 RMS     0.001476329
 Force constants in Cartesian coordinates: 
                1             2             3             4             5 
      1  0.421876D-01
      2  0.499513D-01  0.207575D+00
      3  0.798000D-01  0.931913D-01  0.223381D-01
      4  0.911585D-03 -0.272311D-02 -0.723122D-02  0.916274D-01
      5 -0.137949D-03 -0.127683D-02  0.149500D-02  0.395646D-01  0.915128D-01
      6  0.107023D-02 -0.670624D-05  0.589439D-05 -0.789578D-01 -0.101627D+00
      7 -0.387755D-02 -0.390879D-02 -0.340753D-02 -0.447261D-02 -0.928220D-02
      8 -0.176429D-02  0.116960D-02  0.467490D-02 -0.271176D-02 -0.105521D-01
      9 -0.635278D-02 -0.285352D-02  0.239425D-02  0.140872D-01  0.249144D-01
     10  0.541874D-02  0.167063D-02 -0.357140D-02 -0.938359D-02  0.708172D-02
     11 -0.201271D-02 -0.102816D-02 -0.148868D-02 -0.113300D-01  0.992138D-02
     12  0.223356D-03 -0.510151D-03 -0.107237D-02  0.201213D-01 -0.181160D-01
     13 -0.131979D-01  0.584384D-02 -0.478323D-02 -0.790297D-01 -0.421448D-01
     14 -0.221459D-01  0.815419D-02 -0.112299D-01 -0.392134D-01 -0.911410D-01
     15 -0.110595D-01  0.147722D-02 -0.303205D-01  0.797112D-01  0.900698D-01
     16 -0.988746D-02 -0.340258D-01 -0.405953D-01 -0.250196D-04  0.483887D-03
     17  0.484855D-02 -0.227779D-01 -0.203991D-01 -0.133858D-03 -0.657419D-03
     18  0.949431D-03  0.409151D-01  0.356512D-01  0.214308D-03 -0.837715D-03
     19 -0.215535D-01 -0.168182D-01 -0.202327D-01  0.384498D-03  0.443220D-02
     20 -0.287410D-01 -0.191814D+00 -0.662331D-01  0.165459D-01  0.220097D-02
     21 -0.646194D-01 -0.132217D+00 -0.289876D-01 -0.279318D-01  0.410981D-02
                6             7             8             9            10 
      6  0.261666D+00
      7 -0.585723D-03  0.100493D+00
      8 -0.982355D-02  0.105613D+00  0.292017D+00
      9  0.366599D-02  0.281854D-01  0.433325D-01  0.606115D-01
     10  0.603687D-02  0.989525D-02 -0.758542D-02 -0.543349D-02  0.183932D+00
     11  0.807079D-02  0.194636D-01 -0.158375D-01 -0.108542D-01 -0.123263D+00
     12 -0.880005D-02  0.249299D-02 -0.503990D-03  0.991624D-03 -0.790128D-01
     13  0.877318D-01 -0.848362D-01 -0.959801D-01 -0.112604D-01 -0.158386D+00
     14  0.941750D-01 -0.923140D-01 -0.276818D+00 -0.400746D-01  0.104181D+00
     15 -0.227484D+00 -0.173663D-01 -0.320178D-01 -0.485536D-01  0.681351D-01
     16 -0.111568D-02  0.138970D-02 -0.700479D-03  0.159279D-02 -0.273218D-02
     17  0.491643D-03 -0.701886D-04  0.187144D-02  0.101849D-02 -0.148900D-02
     18 -0.137690D-02  0.235256D-03  0.103161D-02 -0.791779D-03  0.296163D-02
     19 -0.141793D-01 -0.185681D-01  0.313507D-02 -0.208214D-01 -0.287188D-01
     20  0.871340D-02 -0.195186D-01  0.813553D-02 -0.154907D-01  0.194079D-01
     21 -0.276973D-01 -0.956669D-02 -0.669928D-02 -0.183331D-01  0.108708D-01
               11            12            13            14            15 
     11  0.163851D+00
     12  0.804832D-01  0.115783D+00
     13  0.111002D+00  0.853451D-01  0.498939D+00
     14 -0.155554D+00 -0.814983D-01  0.923895D-02  0.593610D+00
     15 -0.784613D-01 -0.108879D+00 -0.682177D-01  0.267791D-01  0.504755D+00
     16  0.327925D-03 -0.332302D-02  0.429891D-02  0.363049D-02 -0.734396D-02
     17 -0.116545D-02  0.977916D-03 -0.357878D-02  0.182854D-03 -0.356105D-02
     18 -0.116822D-02  0.148298D-02  0.148537D-02 -0.216629D-02 -0.461266D-02
     19  0.581243D-02 -0.258559D-01 -0.167870D+00  0.366299D-01 -0.438490D-01
     20 -0.176855D-03  0.191607D-01  0.156412D-01 -0.784427D-01 -0.426194D-02
     21  0.341640D-02  0.481865D-03 -0.903176D-01  0.140192D-01 -0.848680D-01
               16            17            18            19            20 
     16  0.229092D-01
     17 -0.143482D-01  0.882034D-02
     18 -0.235887D-01  0.222785D-01  0.667526D-01
     19 -0.159563D-01  0.147658D-01  0.177348D-01  0.252305D+00
     20  0.446358D-01  0.137296D-01 -0.600562D-01 -0.479659D-01  0.246365D+00
     21  0.743644D-01 -0.811496D-03 -0.971189D-01  0.107231D+00  0.118172D+00
               21 
     21  0.256538D+00
 Leave Link  716 at Wed Mar  6 21:36:36 2024, MaxMem=   104857600 cpu:               0.0 elap:               0.0
 (Enter /opt/g16/l123.exe)
 IRC-IRC-IRC-IRC-IRC-IRC-IRC-IRC-IRC-IRC-IRC-IRC-IRC-IRC-IRC-IRC-IRC-IRC
 Pt  4 Step number   1 out of a maximum of  10
 Using modified Bulirsch-Stoer corrector integration.
   Using distance weighted interpolants to fit PES.
 PreDWI: IReCr0= 2 IReCr1= 1 IReCr2= 1 IReCr3= 1
 Modified Bulirsch-Stoer Extrapolation Cycles:
    EPS =    0.000010000000000
    Cycle     1 NS=    48
      PEZero:  N= 2 I= 1 D=  1.60D-04 Err=  2.24D-06
    Cycle     2 NS=    64 Truncation Error =  0.000002238
 BS completed in    2 cycles and     112 integration steps.
 Maximum DWI energy   std dev =  0.000000177 at pt    24
 Maximum DWI gradient std dev =  0.003902129 at pt    15
 SUMMARY OF CORRECTOR INTEGRATION:
   Predictor End Point Energy =  -215.243264
   Old End Point Energy       =  -215.243264
   Corrected End Point Energy =  -215.243264
   Predictor End-Start Dist.  =     0.030715
   Old End-Start Dist.        =     0.030715
   New End-Start Dist.        =     0.030715
   New End-Old End Dist.      =     0.000125
 CORRECTOR INTEGRATION CONVERGENCE:
   Recorrection delta-x convergence threshold:    0.010000
   Delta-x Convergence Met
 Point Number:   4          Path Number:   1
                    CURRENT STRUCTURE
                Cartesian Coordinates (Ang):                
 ---------------------------------------------------------------------
 Center     Atomic                     Coordinates (Angstroms)
 Number     Number                        X           Y           Z
 ---------------------------------------------------------------------
      1          1                   -0.694650   -0.438332   -0.270072
      2          1                    0.141278   -0.330262    2.197695
      3          1                    0.933625    1.079687    1.456051
      4          1                    1.205462   -0.563945    0.787184
      5          6                    0.488785    0.106333    1.256420
      6          9                    0.144139   -0.321401   -1.364888
      7          8                   -0.637822    0.317893    0.415720
 ---------------------------------------------------------------------
   CHANGE IN THE REACTION COORDINATE =    0.03071
   NET REACTION COORDINATE UP TO THIS POINT =    0.12286
  # OF POINTS ALONG THE PATH =   4
  # OF STEPS =   1

 Calculating another point on the path.
 Point Number  5 in FORWARD path direction.
 Using LQA Reaction Path Following.
   LQA: T_Est iteration completed in    3 iterations.
 IRC-IRC-IRC-IRC-IRC-IRC-IRC-IRC-IRC-IRC-IRC-IRC-IRC-IRC-IRC-IRC-IRC-IRC
 Leave Link  123 at Wed Mar  6 21:36:36 2024, MaxMem=   104857600 cpu:               0.0 elap:               0.0
 (Enter /opt/g16/l202.exe)
                          Input orientation:                          
 ---------------------------------------------------------------------
 Center     Atomic      Atomic             Coordinates (Angstroms)
 Number     Number       Type             X           Y           Z
 ---------------------------------------------------------------------
      1          1           0       -0.685690   -0.435379   -0.282751
      2          1           0        0.140606   -0.330058    2.197410
      3          1           0        0.933513    1.079879    1.456866
      4          1           0        1.204836   -0.564178    0.786921
      5          6           0        0.488801    0.106448    1.256205
      6          9           0        0.143810   -0.321623   -1.364547
      7          8           0       -0.637918    0.317873    0.416254
 ---------------------------------------------------------------------
                    Distance matrix (angstroms):
                    1          2          3          4          5
     1  H    0.000000
     2  H    2.616305   0.000000
     3  H    2.818526   1.779053   0.000000
     4  H    2.175976   1.782380   1.795931   0.000000
     5  C    2.010320   1.094369   1.088854   1.087507   0.000000
     6  F    1.367952   3.561968   3.247801   2.411104   2.677798
     7  O    1.028727   2.049007   2.032959   2.076331   1.421166
                    6          7
     6  F    0.000000
     7  O    2.047268   0.000000
 Symmetry turned off by external request.
 Stoichiometry    CH4FO(2)
 Framework group  C1[X(CH4FO)]
 Deg. of freedom    15
 Full point group                 C1      NOp   1
 Rotational constants (GHZ):          32.5877544           7.2893345           6.2405689
 Leave Link  202 at Wed Mar  6 21:36:36 2024, MaxMem=   104857600 cpu:               0.0 elap:               0.0
 (Enter /opt/g16/l301.exe)
 Standard basis: STO-3G (5D, 7F)
 Ernie: Thresh=  0.10000D-02 Tol=  0.10000D-05 Strict=F.
    19 basis functions,    57 primitive gaussians,    19 cartesian basis functions
    14 alpha electrons       13 beta electrons
       nuclear repulsion energy        77.5561059835 Hartrees.
 IExCor=    0 DFT=F Ex=HF Corr=None ExCW=0 ScaHFX=  1.000000
 ScaDFX=  1.000000  1.000000  1.000000  1.000000 ScalE2=  1.000000  1.000000
 IRadAn=      5 IRanWt=     -1 IRanGd=            0 ICorTp=0 IEmpDi=  4
 NAtoms=    7 NActive=    7 NUniq=    7 SFac= 1.00D+00 NAtFMM=   60 NAOKFM=F Big=F
 Integral buffers will be    131072 words long.
 Raffenetti 2 integral format.
 Two-electron integral symmetry is turned off.
 Leave Link  301 at Wed Mar  6 21:36:36 2024, MaxMem=   104857600 cpu:               0.0 elap:               0.0
 (Enter /opt/g16/l402.exe)
 External calculation of energy, first and second derivatives.
 Running external command "python3 -u ../pes/h4cfo_pes.py R"
         input file       "/home/jh-li/scratch/g16/Gau-332544.EIn"
         output file      "/home/jh-li/scratch/g16/Gau-332544.EOu"
         message file     "/home/jh-li/scratch/g16/Gau-332544.EMs"
         fchk file        "/home/jh-li/scratch/g16/Gau-332544.EFC"
         mat. el file     "/home/jh-li/scratch/g16/Gau-332544.EUF"
 Recovered energy= -215.243452784     dipole=      0.000000000000      0.000000000000      0.000000000000
 NRF= 0 NRA=   0 NVA=   0 HaveQM=F NVQ=       0
 Convergence limit is  0.750E-04 MaxStp= 10000 StMxLn= 3.00D-04 StpMin= 1.00D-06.
 Convergence criteria             0.00011250 0.00007500 0.00045000 0.00030000
  Step  NS  ND Rises OKQ   Scale  Max. Force  RMS Force Max. Disp.  RMS Disp.     Energy   Flag
     1   0   0   F    T  1.00D+00 0.00000000 0.00000000 0.00000000 0.00000000 -215.2434528 ====
 Running external command "python3 -u ../pes/h4cfo_pes.py R"
         input file       "/home/jh-li/scratch/g16/Gau-332544.EIn"
         output file      "/home/jh-li/scratch/g16/Gau-332544.EOu"
         message file     "/home/jh-li/scratch/g16/Gau-332544.EMs"
         fchk file        "/home/jh-li/scratch/g16/Gau-332544.EFC"
         mat. el file     "/home/jh-li/scratch/g16/Gau-332544.EUF"
 Recovered energy= -215.243452784     dipole=      0.000000000000      0.000000000000      0.000000000000
 Energy=    -215.243453     NIter=   0.
 Dipole moment=       0.000000       0.000000       0.000000
 Leave Link  402 at Wed Mar  6 21:36:37 2024, MaxMem=   104857600 cpu:               0.0 elap:               1.0
 (Enter /opt/g16/l716.exe)
 Dipole        = 0.00000000D+00 0.00000000D+00 0.00000000D+00
 -------------------------------------------------------------------
 Center     Atomic                   Forces (Hartrees/Bohr)
 Number     Number              X              Y              Z
 -------------------------------------------------------------------
      1        1           0.003948986    0.001193708   -0.005658463
      2        1          -0.000292801    0.000096941   -0.000117635
      3        1          -0.000050916    0.000082166    0.000352983
      4        1          -0.000277076   -0.000095579   -0.000125821
      5        6           0.000056891    0.000579863   -0.001105659
      6        9          -0.002730338   -0.001851313    0.002789144
      7        8          -0.000654373   -0.000013586    0.003840587
 -------------------------------------------------------------------
 Cartesian Forces:  Max     0.005658463 RMS     0.002009314
 Force constants in Cartesian coordinates: 
                1             2             3             4             5 
      1  0.406636D-01
      2  0.491963D-01  0.198005D+00
      3  0.820434D-01  0.845094D-01  0.112945D-01
      4  0.944146D-03 -0.274150D-02 -0.726235D-02  0.915431D-01
      5 -0.279541D-03 -0.124788D-02  0.183164D-02  0.396328D-01  0.912926D-01
      6  0.920006D-03 -0.173371D-03  0.652475D-04 -0.792737D-01 -0.101672D+00
      7 -0.381148D-02 -0.414537D-02 -0.352161D-02 -0.438345D-02 -0.907967D-02
      8 -0.191155D-02  0.934032D-03  0.439314D-02 -0.273844D-02 -0.106070D-01
      9 -0.640988D-02 -0.289964D-02  0.242253D-02  0.143926D-01  0.249628D-01
     10  0.561803D-02  0.179070D-02 -0.367144D-02 -0.943897D-02  0.720043D-02
     11 -0.212116D-02 -0.124779D-02 -0.130981D-02 -0.114503D-01  0.989735D-02
     12  0.539404D-03 -0.540658D-03 -0.143600D-02  0.203710D-01 -0.181442D-01
     13 -0.127822D-01  0.517281D-02 -0.567107D-02 -0.787521D-01 -0.424112D-01
     14 -0.214359D-01  0.863723D-02 -0.109333D-01 -0.389055D-01 -0.906557D-01
     15 -0.108221D-01  0.883527D-03 -0.303645D-01  0.791769D-01  0.902537D-01
     16 -0.102518D-01 -0.354498D-01 -0.432524D-01  0.120590D-03  0.512923D-03
     17  0.568327D-02 -0.242998D-01 -0.220441D-01 -0.217879D-03 -0.628041D-03
     18  0.500439D-03  0.425610D-01  0.363269D-01 -0.802216D-04 -0.939886D-03
     19 -0.203771D-01 -0.138336D-01 -0.186885D-01 -0.207186D-04  0.442174D-02
     20 -0.291334D-01 -0.180780D+00 -0.564364D-01  0.164191D-01  0.195616D-02
     21 -0.667625D-01 -0.124343D+00 -0.182940D-01 -0.273102D-01  0.371584D-02
                6             7             8             9            10 
      6  0.261260D+00
      7 -0.686790D-03  0.100103D+00
      8 -0.104002D-01  0.105469D+00  0.291560D+00
      9  0.346031D-02  0.281515D-01  0.435712D-01  0.603244D-01
     10  0.593990D-02  0.985731D-02 -0.771878D-02 -0.529040D-02  0.183941D+00
     11  0.817340D-02  0.196101D-01 -0.159864D-01 -0.106972D-01 -0.123437D+00
     12 -0.867425D-02  0.261155D-02 -0.449743D-03  0.106944D-02 -0.791559D-01
     13  0.886348D-01 -0.845391D-01 -0.953348D-01 -0.114272D-01 -0.158222D+00
     14  0.948107D-01 -0.928942D-01 -0.275902D+00 -0.409517D-01  0.104424D+00
     15 -0.226890D+00 -0.173997D-01 -0.316922D-01 -0.476485D-01  0.680880D-01
     16 -0.988515D-03  0.148666D-02 -0.787191D-03  0.175083D-02 -0.281039D-02
     17  0.507014D-03 -0.658482D-04  0.196554D-02  0.943585D-03 -0.162763D-02
     18 -0.155129D-02  0.148120D-03  0.133202D-02 -0.115373D-02  0.301097D-02
     19 -0.145456D-01 -0.186890D-01  0.302800D-02 -0.211703D-01 -0.289188D-01
     20  0.874688D-02 -0.189107D-01  0.802261D-02 -0.149363D-01  0.193713D-01
     21 -0.276917D-01 -0.931610D-02 -0.676143D-02 -0.184903D-01  0.110647D-01
               11            12            13            14            15 
     11  0.164288D+00
     12  0.805918D-01  0.115684D+00
     13  0.111122D+00  0.852607D-01  0.497213D+00
     14 -0.155612D+00 -0.816568D-01  0.846566D-02  0.590752D+00
     15 -0.788239D-01 -0.108491D+00 -0.692551D-01  0.269860D-01  0.500684D+00
     16  0.460093D-03 -0.320706D-02  0.429316D-02  0.360912D-02 -0.756218D-02
     17 -0.114989D-02  0.663535D-03 -0.378597D-02  0.104150D-03 -0.324526D-02
     18 -0.138252D-02  0.100033D-02  0.142628D-02 -0.190992D-02 -0.404213D-02
     19  0.581572D-02 -0.264291D-01 -0.167294D+00  0.367432D-01 -0.422158D-01
     20 -0.178250D-03  0.195291D-01  0.167930D-01 -0.773295D-01 -0.433765D-02
     21  0.344719D-02  0.835258D-03 -0.889835D-01  0.136590D-01 -0.832073D-01
               16            17            18            19            20 
     16  0.239208D-01
     17 -0.149683D-01  0.934430D-02
     18 -0.246341D-01  0.229617D-01  0.700396D-01
     19 -0.167631D-01  0.149761D-01  0.196212D-01  0.252084D+00
     20  0.466269D-01  0.146675D-01 -0.626256D-01 -0.511601D-01  0.233638D+00
     21  0.778863D-01  0.209516D-03 -0.100635D+00  0.103455D+00  0.110063D+00
               21 
     21  0.247493D+00
 Leave Link  716 at Wed Mar  6 21:36:37 2024, MaxMem=   104857600 cpu:               0.0 elap:               0.0
 (Enter /opt/g16/l123.exe)
 IRC-IRC-IRC-IRC-IRC-IRC-IRC-IRC-IRC-IRC-IRC-IRC-IRC-IRC-IRC-IRC-IRC-IRC
 Pt  5 Step number   1 out of a maximum of  10
 Using modified Bulirsch-Stoer corrector integration.
   Using distance weighted interpolants to fit PES.
 PreDWI: IReCr0= 2 IReCr1= 1 IReCr2= 1 IReCr3= 1
 Modified Bulirsch-Stoer Extrapolation Cycles:
    EPS =    0.000010000000000
    Cycle     1 NS=    48
      PEZero:  N= 2 I= 1 D=  1.60D-04 Err=  2.64D-06
    Cycle     2 NS=    64 Truncation Error =  0.000002641
 BS completed in    2 cycles and     112 integration steps.
 Maximum DWI energy   std dev =  0.000000175 at pt    24
 Maximum DWI gradient std dev =  0.002811342 at pt    15
 SUMMARY OF CORRECTOR INTEGRATION:
   Predictor End Point Energy =  -215.243453
   Old End Point Energy       =  -215.243453
   Corrected End Point Energy =  -215.243453
   Predictor End-Start Dist.  =     0.030716
   Old End-Start Dist.        =     0.030716
   New End-Start Dist.        =     0.030715
   New End-Old End Dist.      =     0.000101
 CORRECTOR INTEGRATION CONVERGENCE:
   Recorrection delta-x convergence threshold:    0.010000
   Delta-x Convergence Met
 Point Number:   5          Path Number:   1
                    CURRENT STRUCTURE
                Cartesian Coordinates (Ang):                
 ---------------------------------------------------------------------
 Center     Atomic                     Coordinates (Angstroms)
 Number     Number                        X           Y           Z
 ---------------------------------------------------------------------
      1          1                   -0.685700   -0.435425   -0.282768
      2          1                    0.140607   -0.330056    2.197412
      3          1                    0.933512    1.079878    1.456864
      4          1                    1.204836   -0.564176    0.786918
      5          6                    0.488800    0.106447    1.256205
      6          9                    0.143810   -0.321623   -1.364548
      7          8                   -0.637918    0.317876    0.416256
 ---------------------------------------------------------------------
   CHANGE IN THE REACTION COORDINATE =    0.03072
   NET REACTION COORDINATE UP TO THIS POINT =    0.15357
  # OF POINTS ALONG THE PATH =   5
  # OF STEPS =   1

 Calculating another point on the path.
 Point Number  6 in FORWARD path direction.
 Using LQA Reaction Path Following.
   LQA: T_Est iteration completed in    3 iterations.
 IRC-IRC-IRC-IRC-IRC-IRC-IRC-IRC-IRC-IRC-IRC-IRC-IRC-IRC-IRC-IRC-IRC-IRC
 Leave Link  123 at Wed Mar  6 21:36:37 2024, MaxMem=   104857600 cpu:               0.0 elap:               0.0
 (Enter /opt/g16/l202.exe)
                          Input orientation:                          
 ---------------------------------------------------------------------
 Center     Atomic      Atomic             Coordinates (Angstroms)
 Number     Number       Type             X           Y           Z
 ---------------------------------------------------------------------
      1          1           0       -0.676769   -0.432753   -0.295533
      2          1           0        0.139952   -0.329830    2.197158
      3          1           0        0.933395    1.080064    1.457650
[...]
         fchk file        "/home/jh-li/scratch/g16/Gau-332544.EFC"
         mat. el file     "/home/jh-li/scratch/g16/Gau-332544.EUF"
 Recovered energy= -215.246010786     dipole=      0.000000000000      0.000000000000      0.000000000000
 NRF= 0 NRA=   0 NVA=   0 HaveQM=F NVQ=       0
 Convergence limit is  0.750E-04 MaxStp= 10000 StMxLn= 3.00D-04 StpMin= 1.00D-06.
 Convergence criteria             0.00011250 0.00007500 0.00045000 0.00030000
  Step  NS  ND Rises OKQ   Scale  Max. Force  RMS Force Max. Disp.  RMS Disp.     Energy   Flag
     1   0   0   F    T  1.00D+00 0.00000000 0.00000000 0.00000000 0.00000000 -215.2460108 ====
 Running external command "python3 -u ../pes/h4cfo_pes.py R"
         input file       "/home/jh-li/scratch/g16/Gau-332544.EIn"
         output file      "/home/jh-li/scratch/g16/Gau-332544.EOu"
         message file     "/home/jh-li/scratch/g16/Gau-332544.EMs"
         fchk file        "/home/jh-li/scratch/g16/Gau-332544.EFC"
         mat. el file     "/home/jh-li/scratch/g16/Gau-332544.EUF"
 Recovered energy= -215.246010786     dipole=      0.000000000000      0.000000000000      0.000000000000
 Energy=    -215.246011     NIter=   0.
 Dipole moment=       0.000000       0.000000       0.000000
 Leave Link  402 at Wed Mar  6 21:40:04 2024, MaxMem=   104857600 cpu:               0.0 elap:               1.0
 (Enter /opt/g16/l716.exe)
 Dipole        = 0.00000000D+00 0.00000000D+00 0.00000000D+00
 -------------------------------------------------------------------
 Center     Atomic                   Forces (Hartrees/Bohr)
 Number     Number              X              Y              Z
 -------------------------------------------------------------------
      1        1          -0.000004169   -0.000007814    0.000008097
      2        1           0.000022548    0.000061619   -0.000023487
      3        1           0.000014878   -0.000048187   -0.000053818
      4        1          -0.000036348   -0.000012996    0.000037548
      5        6           0.000039515    0.000008128   -0.000093666
      6        9           0.000047614    0.000119121    0.000117424
      7        8          -0.000082652   -0.000113849   -0.000002662
 -------------------------------------------------------------------
 Cartesian Forces:  Max     0.000119121 RMS     0.000059276
 Force constants in Cartesian coordinates: 
                1             2             3             4             5 
      1  0.149531D+00
      2  0.204578D+00  0.395145D+00
      3  0.340347D-01  0.185399D-01  0.285619D-01
      4  0.141379D-02  0.110204D-02 -0.291556D-02  0.847449D-01
      5  0.239806D-03 -0.108064D-02 -0.867742D-03 -0.278584D-02  0.454770D-01
      6  0.234845D-02  0.108323D-02  0.880574D-03 -0.782453D-01  0.780268D-02
      7 -0.122701D-02  0.330720D-02 -0.792847D-03 -0.532431D-02 -0.740994D-02
      8  0.313670D-02  0.306817D-02  0.120182D-02  0.199548D-02  0.295911D-02
      9 -0.404227D-02 -0.122187D-03 -0.249726D-02  0.170511D-01  0.236286D-01
     10  0.727402D-03  0.767406D-03  0.982801D-03 -0.459563D-02  0.787548D-02
     11 -0.204845D-03  0.129356D-02 -0.378099D-03 -0.984200D-04  0.127941D-02
     12 -0.160180D-03  0.113977D-02 -0.115553D-02  0.114667D-01 -0.236994D-01
     13 -0.205509D-01  0.109173D-01 -0.155010D-01 -0.757852D-01  0.257402D-02
     14 -0.288124D-01  0.504130D-02 -0.202263D-01  0.751257D-03 -0.525963D-01
     15 -0.332660D-02  0.556439D-02 -0.622759D-02  0.903106D-01 -0.111042D-01
     16 -0.924743D-03  0.513386D-04  0.213017D-02 -0.712969D-03  0.533900D-04
     17 -0.165488D-02 -0.889115D-03  0.270791D-02  0.195217D-03  0.434918D-03
     18  0.260314D-02  0.941415D-03  0.168722D-02  0.276147D-02 -0.227840D-03
     19 -0.128967D+00 -0.220722D+00 -0.179341D-01  0.260321D-03 -0.548321D-03
     20 -0.177295D+00 -0.402587D+00 -0.985202D-03 -0.115819D-02  0.352925D-02
     21 -0.314627D-01 -0.271594D-01 -0.212568D-01 -0.404238D-01  0.446686D-02
                6             7             8             9            10 
      6  0.304103D+00
      7  0.350363D-02  0.159323D+00
      8  0.509443D-03  0.134601D+00  0.227353D+00
      9 -0.226303D-02 -0.287179D-01 -0.494682D-01  0.664457D-01
     10  0.598149D-03  0.114495D-01 -0.172347D-01 -0.473542D-02  0.116083D+00
     11  0.162346D-02  0.110776D-01 -0.187201D-01 -0.647758D-02 -0.114489D+00
     12 -0.354315D-02 -0.447183D-02  0.641795D-02  0.174952D-02 -0.209735D-01
     13  0.821484D-01 -0.138298D+00 -0.127013D+00  0.436468D-01 -0.102043D+00
     14 -0.108971D-01 -0.116723D+00 -0.220321D+00  0.533883D-01  0.988128D-01
     15 -0.277406D+00  0.317471D-01  0.433375D-01 -0.639376D-01  0.254098D-01
     16 -0.155315D-02  0.310925D-03  0.131318D-03 -0.130276D-02 -0.427359D-03
     17  0.741925D-03  0.106164D-03  0.108343D-03 -0.263234D-05  0.380563D-03
     18  0.129547D-02  0.127225D-02 -0.476691D-03  0.246685D-02  0.154505D-02
     19 -0.880288D-02 -0.262281D-01  0.437114D-02 -0.218947D-01 -0.211888D-01
     20 -0.868925D-03 -0.249770D-01  0.555346D-02 -0.209471D-01  0.239010D-01
     21 -0.230860D-01 -0.253834D-02 -0.151684D-02 -0.196300D-02 -0.282626D-02
               11            12            13            14            15 
     11  0.260377D+00
     12  0.541371D-01  0.642196D-01
     13  0.104472D+00  0.329223D-01  0.502222D+00
     14 -0.248977D+00 -0.589729D-01  0.207275D-01  0.606418D+00
     15 -0.481790D-01 -0.604975D-01 -0.649571D-01  0.949474D-02  0.530975D+00
     16 -0.132996D-02 -0.276432D-02  0.185072D-02  0.283181D-03 -0.195407D-02
     17  0.318036D-03  0.609939D-03 -0.203222D-02 -0.113469D-02  0.403357D-04
     18 -0.107389D-03 -0.194832D-03 -0.698236D-02 -0.431927D-03 -0.617081D-02
     19  0.577053D-03 -0.160162D-01 -0.167407D+00  0.249699D-01 -0.772356D-01
     20  0.442714D-02  0.203634D-01 -0.963923D-02 -0.884404D-01  0.864794D-03
     21 -0.625864D-03 -0.582232D-03 -0.712976D-01  0.276551D-01 -0.116730D+00
               16            17            18            19            20 
     16  0.112820D-01
     17 -0.378092D-02  0.383684D-02
     18 -0.102324D-01  0.658101D-02  0.266784D-01
     19 -0.113784D-01  0.678859D-02  0.903626D-02  0.354906D+00
     20  0.459244D-02 -0.268032D-02 -0.628661D-02  0.184572D+00  0.480219D+00
     21  0.156675D-01 -0.106790D-01 -0.257471D-01  0.132875D+00  0.786643D-02
               21 
     21  0.189373D+00
 Leave Link  716 at Wed Mar  6 21:40:04 2024, MaxMem=   104857600 cpu:               0.0 elap:               0.0
 (Enter /opt/g16/l123.exe)
 IRC-IRC-IRC-IRC-IRC-IRC-IRC-IRC-IRC-IRC-IRC-IRC-IRC-IRC-IRC-IRC-IRC-IRC
 Pt183 Step number   1 out of a maximum of  10
 Using modified Bulirsch-Stoer corrector integration.
   Using distance weighted interpolants to fit PES.
 PreDWI: IReCr0= 2 IReCr1= 1 IReCr2= 1 IReCr3= 1
 Modified Bulirsch-Stoer Extrapolation Cycles:
    EPS =    0.000010000000000
    Cycle     1 NS=    48
      PEZero:  N= 2 I= 1 D=  1.60D-04 Err=  7.77D-03
    Cycle     2 NS=    64 Truncation Error =  0.007773166
      PEZero:  N= 3 I= 2 D=  1.60D-04 Err=  1.16D-06
      PEZero:  N= 3 I= 1 D=  3.20D-04 Err=  7.77D-03
    Cycle     3 NS=    96 Truncation Error =  0.000001160
 BS completed in    3 cycles and     208 integration steps.
 Maximum DWI energy   std dev =  0.000000089 at pt    32
 Maximum DWI gradient std dev =  0.043360758 at pt    28
 SUMMARY OF CORRECTOR INTEGRATION:
   Predictor End Point Energy =  -215.246011
   Old End Point Energy       =  -215.246011
   Corrected End Point Energy =  -215.246011
   Predictor End-Start Dist.  =     0.030719
   Old End-Start Dist.        =     0.030719
   New End-Start Dist.        =     0.030718
   New End-Old End Dist.      =     0.000103
 CORRECTOR INTEGRATION CONVERGENCE:
   Recorrection delta-x convergence threshold:    0.010000
   Delta-x Convergence Met
 Point Number:  83          Path Number:   2
                    CURRENT STRUCTURE
                Cartesian Coordinates (Ang):                
 ---------------------------------------------------------------------
 Center     Atomic                     Coordinates (Angstroms)
 Number     Number                        X           Y           Z
 ---------------------------------------------------------------------
      1          1                   -1.110832   -0.577506    0.333214
      2          1                    0.180132    0.137571    2.301821
      3          1                    1.149187    0.949046    1.044229
      4          1                    1.016303   -0.824075    1.041658
      5          6                    0.490924    0.108887    1.253509
      6          9                    0.167993   -0.272604   -1.377329
      7          8                   -0.645449    0.261916    0.396599
 ---------------------------------------------------------------------
   CHANGE IN THE REACTION COORDINATE =    0.03072
   NET REACTION COORDINATE UP TO THIS POINT =    2.54940
  # OF POINTS ALONG THE PATH = 183
  # OF STEPS =   1

 PES minimum detected on this side of the pathway.
    Magnitude of the gradient =      0.0001260
 Calculation of REVERSE path complete.
 Reaction path calculation complete.
 
 Energies reported relative to the TS energy of        -215.242981
 --------------------------------------------------------------------------
    Summary of reaction path following
 --------------------------------------------------------------------------
                        Energy    RxCoord
   1                   -0.00303  -2.54940
   2                   -0.00303  -2.51868
   3                   -0.00302  -2.48796
   4                   -0.00302  -2.45724
   5                   -0.00301  -2.42652
   6                   -0.00300  -2.39581
   7                   -0.00299  -2.36509
   8                   -0.00298  -2.33437
   9                   -0.00298  -2.30365
  10                   -0.00297  -2.27294
  11                   -0.00295  -2.24222
  12                   -0.00294  -2.21150
  13                   -0.00293  -2.18078
  14                   -0.00292  -2.15007
  15                   -0.00290  -2.11935
  16                   -0.00289  -2.08863
  17                   -0.00287  -2.05791
  18                   -0.00286  -2.02720
  19                   -0.00284  -1.99648
  20                   -0.00283  -1.96576
  21                   -0.00281  -1.93505
  22                   -0.00279  -1.90433
  23                   -0.00277  -1.87361
  24                   -0.00275  -1.84289
  25                   -0.00273  -1.81218
  26                   -0.00271  -1.78146
  27                   -0.00269  -1.75074
  28                   -0.00267  -1.72003
  29                   -0.00265  -1.68931
  30                   -0.00263  -1.65859
  31                   -0.00260  -1.62787
  32                   -0.00258  -1.59716
  33                   -0.00256  -1.56644
  34                   -0.00253  -1.53572
  35                   -0.00251  -1.50501
  36                   -0.00248  -1.47429
  37                   -0.00246  -1.44358
  38                   -0.00243  -1.41286
  39                   -0.00240  -1.38215
  40                   -0.00237  -1.35144
  41                   -0.00235  -1.32072
  42                   -0.00232  -1.29001
  43                   -0.00229  -1.25930
  44                   -0.00225  -1.22859
  45                   -0.00222  -1.19788
  46                   -0.00219  -1.16718
  47                   -0.00215  -1.13647
  48                   -0.00212  -1.10576
  49                   -0.00208  -1.07504
  50                   -0.00204  -1.04433
  51                   -0.00200  -1.01362
  52                   -0.00196  -0.98291
  53                   -0.00191  -0.95219
  54                   -0.00187  -0.92148
  55                   -0.00182  -0.89076
  56                   -0.00178  -0.86005
  57                   -0.00173  -0.82933
  58                   -0.00168  -0.79862
  59                   -0.00163  -0.76790
  60                   -0.00158  -0.73719
  61                   -0.00153  -0.70648
  62                   -0.00148  -0.67576
  63                   -0.00142  -0.64504
  64                   -0.00137  -0.61433
  65                   -0.00131  -0.58361
  66                   -0.00125  -0.55290
  67                   -0.00119  -0.52218
  68                   -0.00112  -0.49147
  69                   -0.00105  -0.46075
  70                   -0.00098  -0.43003
  71                   -0.00091  -0.39932
  72                   -0.00083  -0.36860
  73                   -0.00075  -0.33788
  74                   -0.00067  -0.30717
  75                   -0.00058  -0.27645
  76                   -0.00049  -0.24573
  77                   -0.00041  -0.21501
  78                   -0.00032  -0.18430
  79                   -0.00024  -0.15358
  80                   -0.00017  -0.12286
  81                   -0.00010  -0.09215
  82                   -0.00005  -0.06143
  83                   -0.00001  -0.03072
  84                    0.00000   0.00000
  85                   -0.00001   0.03072
  86                   -0.00006   0.06143
  87                   -0.00015   0.09214
  88                   -0.00028   0.12286
  89                   -0.00047   0.15357
  90                   -0.00072   0.18429
  91                   -0.00104   0.21500
  92                   -0.00144   0.24572
  93                   -0.00192   0.27643
  94                   -0.00249   0.30715
  95                   -0.00315   0.33787
  96                   -0.00391   0.36858
  97                   -0.00476   0.39930
  98                   -0.00571   0.43001
  99                   -0.00674   0.46073
 100                   -0.00786   0.49145
 101                   -0.00906   0.52216
 102                   -0.01033   0.55288
 103                   -0.01164   0.58360
 104                   -0.01300   0.61431
 105                   -0.01439   0.64503
 106                   -0.01578   0.67575
 107                   -0.01715   0.70646
 108                   -0.01850   0.73718
 109                   -0.01979   0.76789
 110                   -0.02102   0.79861
 111                   -0.02215   0.82931
 112                   -0.02318   0.86002
 113                   -0.02409   0.89071
 114                   -0.02490   0.92138
 115                   -0.02561   0.95205
 116                   -0.02625   0.98271
 117                   -0.02684   1.01340
 118                   -0.02739   1.04410
 119                   -0.02792   1.07481
 120                   -0.02843   1.10552
 121                   -0.02892   1.13624
 122                   -0.02939   1.16695
 123                   -0.02984   1.19767
 124                   -0.03027   1.22838
 125                   -0.03070   1.25910
 126                   -0.03110   1.28981
 127                   -0.03150   1.32053
 128                   -0.03188   1.35125
 129                   -0.03226   1.38196
 130                   -0.03262   1.41268
 131                   -0.03297   1.44339
 132                   -0.03332   1.47411
 133                   -0.03366   1.50483
 134                   -0.03398   1.53554
 135                   -0.03430   1.56626
 136                   -0.03462   1.59698
 137                   -0.03493   1.62769
 138                   -0.03523   1.65841
 139                   -0.03552   1.68913
 140                   -0.03581   1.71984
 141                   -0.03609   1.75056
 142                   -0.03637   1.78128
 143                   -0.03664   1.81199
 144                   -0.03691   1.84271
 145                   -0.03717   1.87343
 146                   -0.03743   1.90414
 147                   -0.03769   1.93486
 148                   -0.03794   1.96558
 149                   -0.03818   1.99630
 150                   -0.03843   2.02701
 151                   -0.03867   2.05773
 152                   -0.03890   2.08845
 153                   -0.03913   2.11917
 154                   -0.03936   2.14988
 155                   -0.03958   2.18060
 156                   -0.03980   2.21132
 157                   -0.04002   2.24203
 158                   -0.04024   2.27275
 159                   -0.04045   2.30347
 160                   -0.04065   2.33419
 161                   -0.04086   2.36490
 162                   -0.04106   2.39562
 163                   -0.04126   2.42634
 164                   -0.04146   2.45706
 165                   -0.04165   2.48777
 166                   -0.04184   2.51849
 167                   -0.04203   2.54921
 168                   -0.04221   2.57993
 169                   -0.04239   2.61064
 170                   -0.04257   2.64136
 171                   -0.04275   2.67208
 172                   -0.04292   2.70280
 173                   -0.04310   2.73351
 174                   -0.04327   2.76423
 175                   -0.04343   2.79495
 176                   -0.04360   2.82567
 177                   -0.04376   2.85638
 178                   -0.04392   2.88710
 179                   -0.04407   2.91782
 180                   -0.04423   2.94854
 181                   -0.04438   2.97925
 182                   -0.04453   3.00997
 183                   -0.04468   3.04069
 184                   -0.04482   3.07141
 --------------------------------------------------------------------------
 
 Total number of points:                  183
 Total number of gradient calculations:   184
 Total number of Hessian calculations:    184
 IRC-IRC-IRC-IRC-IRC-IRC-IRC-IRC-IRC-IRC-IRC-IRC-IRC-IRC-IRC-IRC-IRC-IRC
 Leave Link  123 at Wed Mar  6 21:40:04 2024, MaxMem=   104857600 cpu:               0.0 elap:               0.0
 (Enter /opt/g16/l202.exe)
                          Input orientation:                          
 ---------------------------------------------------------------------
 Center     Atomic      Atomic             Coordinates (Angstroms)
 Number     Number       Type             X           Y           Z
 ---------------------------------------------------------------------
      1          1           0       -1.110833   -0.577509    0.333216
      2          1           0        0.180121    0.137570    2.301848
      3          1           0        1.149202    0.949074    1.044217
      4          1           0        1.016304   -0.824097    1.041639
      5          6           0        0.490924    0.108889    1.253509
      6          9           0        0.167994   -0.272605   -1.377329
      7          8           0       -0.645450    0.261914    0.396599
 ---------------------------------------------------------------------
                    Distance matrix (angstroms):
                    1          2          3          4          5
     1  H    0.000000
     2  H    2.460368   0.000000
     3  H    2.818463   1.783057   0.000000
     4  H    2.255522   1.792243   1.778147   0.000000
     5  C    1.970712   1.093817   1.087678   1.091502   0.000000
     6  F    2.157390   3.701991   2.884294   2.622057   2.677897
     7  O    0.961888   2.080146   2.027898   2.087325   1.431453
                    6          7
     6  F    0.000000
     7  O    2.023418   0.000000
 Symmetry turned off by external request.
 Stoichiometry    CH4FO(2)
 Framework group  C1[X(CH4FO)]
 Deg. of freedom    15
 Full point group                 C1      NOp   1
 Rotational constants (GHZ):          30.6476938           7.2978495           6.2354140
 Leave Link  202 at Wed Mar  6 21:40:04 2024, MaxMem=   104857600 cpu:               0.0 elap:               0.0
 (Enter /opt/g16/l601.exe)
 Leave Link  601 at Wed Mar  6 21:40:04 2024, MaxMem=   104857600 cpu:               0.0 elap:               0.0
 (Enter /opt/g16/l9999.exe)

 This type of calculation cannot be archived.


 WHEN ALL ELSE FAILS, TRY THE BOSS'S SUGGESTION.
 Job cpu time:       0 days  0 hours  0 minutes 33.3 seconds.
 Elapsed time:       0 days  0 hours  3 minutes 28.4 seconds.
 File lengths (MBytes):  RWF=      6 Int=      0 D2E=      0 Chk=      2 Scr=      1
 Normal termination of Gaussian 16 at Wed Mar  6 21:40:04 2024.
