 Entering Gaussian System, Link 0=g16
 Initial command:
 /opt/g16/l1.exe "/home/jh-li/scratch/g16/Gau-375105.inp" -scrdir="/home/jh-li/scratch/g16/"
 Entering Link 1 = /opt/g16/l1.exe PID=    375108.
  
 Copyright (c) 1988-2019, Gaussian, Inc.  All Rights Reserved.
  
 This is part of the Gaussian(R) 16 program.  It is based on
 the Gaussian(R) 09 system (copyright 2009, Gaussian, Inc.),
 the Gaussian(R) 03 system (copyright 2003, Gaussian, Inc.),
 the Gaussian(R) 98 system (copyright 1998, Gaussian, Inc.),
 the Gaussian(R) 94 system (copyright 1995, Gaussian, Inc.),
 the Gaussian 92(TM) system (copyright 1992, Gaussian, Inc.),
 the Gaussian 90(TM) system (copyright 1990, Gaussian, Inc.),
 the Gaussian 88(TM) system (copyright 1988, Gaussian, Inc.),
 the Gaussian 86(TM) system (copyright 1986, Carnegie Mellon
 University), and the Gaussian 82(TM) system (copyright 1983,
 Carnegie Mellon University). Gaussian is a federally registered
 trademark of Gaussian, Inc.
  
 This software contains proprietary and confidential information,
 including trade secrets, belonging to Gaussian, Inc.
  
 This software is provided under written license and may be
 used, copied, transmitted, or stored only in accord with that
 written license.
  
 The following legend is applicable only to US Government
 contracts under FAR:
  
                    RESTRICTED RIGHTS LEGEND
  
 Use, reproduction and disclosure by the US Government is
 subject to restrictions as set forth in subparagraphs (a)
 and (c) of the Commercial Computer Software - Restricted
 Rights clause in FAR 52.227-19.
  
 Gaussian, Inc.
 340 Quinnipiac St., Bldg. 40, Wallingford CT 06492
  
  
 ---------------------------------------------------------------
 Warning -- This program may not be used in any manner that
 competes with the business of Gaussian, Inc. or will provide
 assistance to any competitor of Gaussian, Inc.  The licensee
 of this program is prohibited from giving any competitor of
 Gaussian, Inc. access to this program.  By using this program,
 the user acknowledges that Gaussian, Inc. is engaged in the
 business of creating and licensing software in the field of
 computational chemistry and represents and warrants to the
 licensee that it is not a competitor of Gaussian, Inc. and that
 it will not use this program in any manner prohibited above.
 ---------------------------------------------------------------
  

 Cite this work as:
 Gaussian 16, Revision C.01,
 M. J. Frisch, G. W. Trucks, H. B. Schlegel, G. E. Scuseria, 
 M. A. Robb, J. R. Cheeseman, G. Scalmani, V. Barone, 
 G. A. Petersson, H. Nakatsuji, X. Li, M. Caricato, A. V. Marenich, 
 J. Bloino, B. G. Janesko, R. Gomperts, B. Mennucci, H. P. Hratchian, 
 J. V. Ortiz, A. F. Izmaylov, J. L. Sonnenberg, D. Williams-Young, 
 F. Ding, F. Lipparini, F. Egidi, J. Goings, B. Peng, A. Petrone, 
 T. Henderson, D. Ranasinghe, V. G. Zakrzewski, J. Gao, N. Rega, 
 G. Zheng, W. Liang, M. Hada, M. Ehara, K. Toyota, R. Fukuda, 
 J. Hasegawa, M. Ishida, T. Nakajima, Y. Honda, O. Kitao, H. Nakai, 
 T. Vreven, K. Throssell, J. A. Montgomery, Jr., J. E. Peralta, 
 F. Ogliaro, M. J. Bearpark, J. J. Heyd, E. N. Brothers, K. N. Kudin, 
 V. N. Staroverov, T. A. Keith, R. Kobayashi, J. Normand, 
 K. Raghavachari, A. P. Rendell, J. C. Burant, S. S. Iyengar, 
 J. Tomasi, M. Cossi, J. M. Millam, M. Klene, C. Adamo, R. Cammi, 
 J. W. Ochterski, R. L. Martin, K. Morokuma, O. Farkas, 
 J. B. Foresman, and D. J. Fox, Gaussian, Inc., Wallingford CT, 2019.
 
 ******************************************
 Gaussian 16:  ES64L-G16RevC.01  3-Jul-2019
                 6-Mar-2024 
 ******************************************
 %nproc=1
 Will use up to    1 processors via shared memory.
 %chk=ts2-opt-freq.chk
 ----------------------------------------------------------------------
 #p external="python3 -u ../pes/h4cfo_pes.py" opt=(nomicro,ts,noeigen,c
 alcall,maxcycle=1)
 ----------------------------------------------------------------------
 1/5=1,6=1,10=4,11=1,18=20,26=1,38=1/1,3;
 2/9=110,12=2,17=6,18=5,40=1/2;
 3/11=9,25=1,30=1,41=9900000,43=2,71=2,140=1/1;
 4/20=17,22=2,24=3,113=1,114=1/2;
 6/7=2,8=2,9=2,10=2,18=1/1;
 7/25=1,44=-1/16;
 1/5=1,6=1,10=4,11=1,18=20,26=1/3(3);
 2/9=110/2;
 7/8=1,9=1,25=1,44=-1/16;
 99//99;
 2/9=110/2;
 3/11=9,25=1,30=1,41=9900000,43=2,71=2,140=1/1;
 4/16=2,20=17,22=2,24=3,113=1,114=1/2;
 7/25=1,44=-1/16;
 1/5=1,6=1,10=4,11=1,18=20,26=1/3(-4);
 2/9=110/2;
 6/7=2,8=2,9=2,10=2,18=1/1;
 7/8=1,9=1,25=1,44=-1/16;
 99//99;
 Leave Link    1 at Wed Mar  6 22:33:22 2024, MaxMem=           0 cpu:               0.0 elap:               0.0
 (Enter /opt/g16/l101.exe)
 -----------------------
 F + CH3OH -> HF + CH2OH
 -----------------------
 Symbolic Z-matrix:
 Charge =  0 Multiplicity = 2
 H                    -1.41096  -0.91256   0.43171 
 H                     0.17279   1.37341  -0.03199 
 H                     0.71898  -0.30851  -0.28 
 H                     0.38781   0.30645   1.35914 
 C                     0.05667   0.34243   0.2899 
 F                     0.62999  -0.64783   2.59617 
 O                    -1.30154   0.0042    0.161 
 
 Add virtual bond connecting atoms F6         and H4         Dist= 2.99D+00.
 ITRead=  0  0  0  0  0  0  0
 MicOpt= -1 -1 -1 -1 -1 -1 -1
 NAtoms=      7 NQM=        7 NQMF=       0 NMMI=      0 NMMIF=      0
                NMic=       0 NMicF=      0.
                    Isotopes and Nuclear Properties:
 (Nuclear quadrupole moments (NQMom) in fm**2, nuclear magnetic moments (NMagM)
  in nuclear magnetons)

  Atom         1           2           3           4           5           6           7
 IAtWgt=           1           1           1           1          12          19          16
 AtmWgt=   1.0078250   1.0078250   1.0078250   1.0078250  12.0000000  18.9984032  15.9949146
 NucSpn=           1           1           1           1           0           1           0
 AtZEff=  -0.0000000  -0.0000000  -0.0000000  -0.0000000  -0.0000000  -0.0000000  -0.0000000
 NQMom=    0.0000000   0.0000000   0.0000000   0.0000000   0.0000000   0.0000000   0.0000000
 NMagM=    2.7928460   2.7928460   2.7928460   2.7928460   0.0000000   2.6288670   0.0000000
 AtZNuc=   1.0000000   1.0000000   1.0000000   1.0000000   6.0000000   9.0000000   8.0000000
 Leave Link  101 at Wed Mar  6 22:33:22 2024, MaxMem=   104857600 cpu:               0.1 elap:               0.1
 (Enter /opt/g16/l103.exe)

 GradGradGradGradGradGradGradGradGradGradGradGradGradGradGradGradGradGrad
 Berny optimization.
 Initialization pass.
                           ----------------------------
                           !    Initial Parameters    !
                           ! (Angstroms and Degrees)  !
 --------------------------                            --------------------------
 ! Name  Definition              Value          Derivative Info.                !
 --------------------------------------------------------------------------------
 ! R1    R(1,7)                  0.9621         calculate D2E/DX2 analytically  !
 ! R2    R(2,5)                  1.0863         calculate D2E/DX2 analytically  !
 ! R3    R(3,5)                  1.0896         calculate D2E/DX2 analytically  !
 ! R4    R(4,5)                  1.1199         calculate D2E/DX2 analytically  !
 ! R5    R(4,6)                  1.581          calculate D2E/DX2 analytically  !
 ! R6    R(5,7)                  1.4056         calculate D2E/DX2 analytically  !
 ! A1    A(5,4,6)              144.264          calculate D2E/DX2 analytically  !
 ! A2    A(2,5,3)              110.3065         calculate D2E/DX2 analytically  !
 ! A3    A(2,5,4)              106.3676         calculate D2E/DX2 analytically  !
 ! A4    A(2,5,7)              107.7279         calculate D2E/DX2 analytically  !
 ! A5    A(3,5,4)              107.4844         calculate D2E/DX2 analytically  !
 ! A6    A(3,5,7)              113.3057         calculate D2E/DX2 analytically  !
 ! A7    A(4,5,7)              111.4406         calculate D2E/DX2 analytically  !
 ! A8    A(1,7,5)              108.2627         calculate D2E/DX2 analytically  !
 ! D1    D(6,4,5,2)           -176.9754         calculate D2E/DX2 analytically  !
 ! D2    D(6,4,5,3)            -58.8283         calculate D2E/DX2 analytically  !
 ! D3    D(6,4,5,7)             65.8764         calculate D2E/DX2 analytically  !
 ! D4    D(2,5,7,1)            179.1537         calculate D2E/DX2 analytically  !
 ! D5    D(3,5,7,1)             56.8487         calculate D2E/DX2 analytically  !
 ! D6    D(4,5,7,1)            -64.5263         calculate D2E/DX2 analytically  !
 --------------------------------------------------------------------------------
 Trust Radius=3.00D-01 FncErr=1.00D-07 GrdErr=1.00D-07 EigMax=2.50D+02 EigMin=1.00D-04
 Number of steps in this run=      1 maximum allowed number of steps=    100.
 Search for a saddle point of order  1.
 GradGradGradGradGradGradGradGradGradGradGradGradGradGradGradGradGradGrad

 Leave Link  103 at Wed Mar  6 22:33:22 2024, MaxMem=   104857600 cpu:               0.0 elap:               0.0
 (Enter /opt/g16/l202.exe)
                          Input orientation:                          
 ---------------------------------------------------------------------
 Center     Atomic      Atomic             Coordinates (Angstroms)
 Number     Number       Type             X           Y           Z
 ---------------------------------------------------------------------
      1          1           0       -1.410961   -0.912564    0.431708
      2          1           0        0.172788    1.373406   -0.031987
      3          1           0        0.718979   -0.308505   -0.279998
      4          1           0        0.387813    0.306448    1.359135
      5          6           0        0.056670    0.342432    0.289900
      6          9           0        0.629994   -0.647833    2.596169
      7          8           0       -1.301539    0.004196    0.160998
 ---------------------------------------------------------------------
                    Distance matrix (angstroms):
                    1          2          3          4          5
     1  H    0.000000
     2  H    2.819385   0.000000
     3  H    2.325523   1.785682   0.000000
     4  H    2.362562   1.766311   1.781739   0.000000
     5  C    1.936250   1.086279   1.089567   1.119917   0.000000
     6  F    2.986716   3.346886   2.897481   1.580999   2.574529
     7  O    0.962136   2.021292   2.091591   2.093036   1.405614
                    6          7
     6  F    0.000000
     7  O    3.175849   0.000000
 Stoichiometry    CH4FO(2)
 Framework group  C1[X(CH4FO)]
 Deg. of freedom    15
 Full point group                 C1      NOp   1
 Largest Abelian subgroup         C1      NOp   1
 Largest concise Abelian subgroup C1      NOp   1
                         Standard orientation:                         
 ---------------------------------------------------------------------
 Center     Atomic      Atomic             Coordinates (Angstroms)
 Number     Number       Type             X           Y           Z
 ---------------------------------------------------------------------
      1          1           0        0.927416   -1.190138    0.504909
      2          1           0        1.079551    1.388396   -0.625114
      3          1           0        0.584447    1.043096    1.055451
      4          1           0       -0.444017    0.550783   -0.313667
      5          6           0        0.614366    0.661993    0.035146
      6          9           0       -1.826084   -0.156477   -0.014951
      7          8           0        1.325146   -0.544475   -0.087237
 ---------------------------------------------------------------------
 Rotational constants (GHZ):          29.4461628           5.0419079           4.4552853
 Leave Link  202 at Wed Mar  6 22:33:22 2024, MaxMem=   104857600 cpu:               0.0 elap:               0.0
 (Enter /opt/g16/l301.exe)
 Standard basis: STO-3G (5D, 7F)
 Ernie: Thresh=  0.10000D-02 Tol=  0.10000D-05 Strict=F.
 There are    19 symmetry adapted cartesian basis functions of A   symmetry.
 There are    19 symmetry adapted basis functions of A   symmetry.
    19 basis functions,    57 primitive gaussians,    19 cartesian basis functions
    14 alpha electrons       13 beta electrons
       nuclear repulsion energy        71.2258705262 Hartrees.
 IExCor=    0 DFT=F Ex=HF Corr=None ExCW=0 ScaHFX=  1.000000
 ScaDFX=  1.000000  1.000000  1.000000  1.000000 ScalE2=  1.000000  1.000000
 IRadAn=      5 IRanWt=     -1 IRanGd=            0 ICorTp=0 IEmpDi=  4
 NAtoms=    7 NActive=    7 NUniq=    7 SFac= 1.00D+00 NAtFMM=   60 NAOKFM=F Big=F
 Integral buffers will be    131072 words long.
 Raffenetti 2 integral format.
 Two-electron integral symmetry is turned on.
 Leave Link  301 at Wed Mar  6 22:33:22 2024, MaxMem=   104857600 cpu:               0.0 elap:               0.0
 (Enter /opt/g16/l402.exe)
 External calculation of energy, first and second derivatives.
 Running external command "python3 -u ../pes/h4cfo_pes.py R"
         input file       "/home/jh-li/scratch/g16/Gau-375108.EIn"
         output file      "/home/jh-li/scratch/g16/Gau-375108.EOu"
         message file     "/home/jh-li/scratch/g16/Gau-375108.EMs"
         fchk file        "/home/jh-li/scratch/g16/Gau-375108.EFC"
         mat. el file     "/home/jh-li/scratch/g16/Gau-375108.EUF"
 Recovered energy= -215.240290309     dipole=      0.000000000000      0.000000000000      0.000000000000
 Energy=    -215.240290     NIter=   0.
 Dipole moment=       0.000000       0.000000       0.000000
 Leave Link  402 at Wed Mar  6 22:33:23 2024, MaxMem=   104857600 cpu:               0.0 elap:               0.8
 (Enter /opt/g16/l601.exe)
 Leave Link  601 at Wed Mar  6 22:33:23 2024, MaxMem=   104857600 cpu:               0.0 elap:               0.0
 (Enter /opt/g16/l716.exe)
 Dipole        = 0.00000000D+00 0.00000000D+00 0.00000000D+00
 ***** Axes restored to original set *****
 -------------------------------------------------------------------
 Center     Atomic                   Forces (Hartrees/Bohr)
 Number     Number              X              Y              Z
 -------------------------------------------------------------------
      1        1          -0.001096034    0.000653467   -0.000995344
      2        1          -0.000087796    0.001451571    0.000943235
      3        1           0.001571970   -0.001299272    0.001347397
      4        1           0.004008175   -0.006465181    0.021650578
      5        6          -0.012989704   -0.001811048   -0.018637749
      6        9          -0.001116463    0.006132900   -0.008316666
      7        8           0.009705741    0.001332157    0.004021823
 -------------------------------------------------------------------
 Cartesian Forces:  Max     0.021650578 RMS     0.007800381
 Force constants in Cartesian coordinates: 
                1             2             3             4             5 
      1  0.660411D-01
      2  0.666290D-01  0.481251D+00
      3 -0.106770D-01 -0.137193D+00  0.459633D-01
      4 -0.863607D-02 -0.236548D-02  0.212041D-03  0.648088D-01
      5 -0.871834D-03 -0.557383D-03  0.254793D-02  0.287716D-01  0.322132D+00
      6 -0.894703D-03 -0.392725D-03  0.845809D-03 -0.938809D-02 -0.852831D-01
      7  0.240618D-02  0.104684D-02 -0.121029D-02  0.459583D-02 -0.167533D-02
      8 -0.946470D-03  0.421167D-02 -0.373559D-03  0.167623D-01 -0.172554D-01
      9  0.516987D-03  0.175025D-02 -0.234963D-02 -0.755018D-02  0.546618D-02
     10  0.118327D-02 -0.275008D-02  0.471780D-03  0.781102D-03 -0.424749D-02
     11  0.404138D-03 -0.424969D-02 -0.250298D-03  0.273566D-02 -0.607621D-04
     12 -0.181731D-02  0.763197D-02 -0.179963D-03  0.359197D-04 -0.828919D-02
     13 -0.821733D-02  0.240173D-02 -0.116319D-02 -0.465514D-01 -0.170532D-01
     14 -0.482733D-01 -0.113739D-01 -0.604023D-02 -0.987426D-03 -0.297678D+00
     15  0.150468D-01 -0.800448D-02  0.635831D-02  0.467515D-02  0.847009D-01
     16 -0.286422D-03  0.698612D-03  0.180848D-03 -0.395070D-03 -0.213697D-04
     17  0.130948D-03  0.161238D-02  0.378106D-03  0.500822D-03 -0.104207D-02
     18 -0.322511D-03 -0.168516D-02 -0.403819D-03  0.150039D-03  0.805294D-03
     19 -0.524909D-01 -0.656592D-01  0.121848D-01 -0.145985D-01 -0.490666D-02
     20 -0.170797D-01 -0.470883D+00  0.140928D+00 -0.454196D-01 -0.554575D-02
     21 -0.185818D-02  0.137901D+00 -0.502336D-01  0.118683D-01  0.587108D-04
                6             7             8             9            10 
      6  0.692977D-01
      7 -0.162135D-02  0.164062D+00
      8 -0.189468D-01 -0.102286D+00  0.159341D+00
      9  0.643318D-02 -0.898829D-01  0.943990D-01  0.124359D+00
     10  0.109519D-02  0.399524D-02  0.832874D-03  0.116101D-01  0.560417D-01
     11  0.298876D-01 -0.233299D-02 -0.419638D-02 -0.114552D-01  0.114016D-01
     12 -0.154198D-01 -0.713905D-02  0.111577D-01 -0.262400D-01  0.414088D-01
     13  0.138064D-01 -0.135098D+00  0.904068D-01  0.893096D-01 -0.283211D-01
     14  0.838878D-01  0.891054D-01 -0.153161D+00 -0.882714D-01  0.403168D-02
     15 -0.677083D-01  0.839527D-01 -0.941193D-01 -0.115746D+00 -0.323610D-01
     16  0.947131D-03  0.204543D-03 -0.323679D-03  0.204955D-02 -0.609761D-03
     17 -0.393954D-02 -0.180575D-03  0.262511D-02 -0.501135D-02 -0.899607D-02
     18  0.553285D-02 -0.107927D-02 -0.197169D-03  0.588881D-02  0.107814D-01
     19 -0.393967D-02 -0.401712D-01 -0.444396D-02 -0.604132D-02 -0.330710D-01
     20 -0.520935D-02  0.163328D-01  0.842848D-02  0.310970D-02 -0.269582D-03
     21  0.103188D-02  0.169888D-01  0.807777D-02  0.765914D-02 -0.330056D-01
               11            12            13            14            15 
     11  0.193649D-01
     12  0.350527D-01  0.174669D+00
     13 -0.187260D-01 -0.678590D-02  0.456478D+00
     14 -0.287608D-01  0.978712D-02 -0.186144D-01  0.601297D+00
     15 -0.372097D-01 -0.172639D+00 -0.612136D-01 -0.650540D-02  0.464851D+00
     16 -0.295727D-02  0.105133D-01 -0.848436D-02 -0.116790D-03 -0.120627D-01
     17  0.801463D-02 -0.386601D-01  0.186652D-01 -0.210214D-02  0.413627D-01
     18 -0.129260D-01  0.465768D-01 -0.236162D-01 -0.190626D-02 -0.561265D-01
     19  0.947537D-02 -0.362315D-01 -0.229826D+00 -0.251415D-01  0.195058D-02
     20  0.988133D-02 -0.166713D-01 -0.570982D-01 -0.108200D+00  0.197819D-01
     21 -0.308851D-02 -0.678815D-02 -0.103452D-01  0.904931D-02 -0.590017D-01
               16            17            18            19            20 
     16  0.463521D-02
     17  0.141915D-02 -0.537423D-02
     18 -0.992306D-03  0.104550D-01 -0.731504D-02
     19  0.493276D-02 -0.115448D-01  0.150838D-01  0.365251D+00
     20  0.129854D-02 -0.372674D-02  0.544588D-02  0.102238D+00  0.570030D+00
     21 -0.633524D-03 -0.459748D-02  0.586260D-02  0.169925D-01 -0.147396D+00
               21 
     21  0.101470D+00
 FormGI is forming the generalized inverse of G from B-inverse, IUseBI=4.
 Force constants in internal coordinates: 
                1             2             3             4             5 
      1  0.530108D+00
      2  0.141969D-02  0.351396D+00
      3  0.266850D-02  0.368816D-02  0.341961D+00
      4 -0.480957D-02 -0.506110D-02 -0.256160D-02  0.277899D+00
      5  0.197646D-02 -0.864284D-03 -0.351410D-02  0.508908D-01 -0.167116D-01
      6  0.548462D-02  0.824388D-02  0.159611D-01  0.315329D-01 -0.202093D-01
      7 -0.137956D-02 -0.115358D-02 -0.437585D-02  0.671044D-02  0.660436D-02
      8  0.588920D-03  0.458586D-02  0.560735D-02 -0.109183D-01  0.517697D-02
      9 -0.340513D-02  0.508075D-02 -0.609211D-02  0.522066D-02 -0.450861D-02
     10  0.397716D-02  0.531549D-02 -0.775329D-03 -0.739734D-02  0.324976D-02
     11  0.834864D-03 -0.234919D-02  0.288797D-02  0.143745D-01 -0.360492D-02
     12 -0.693733D-02 -0.271384D-02  0.343354D-02 -0.798601D-02  0.407889D-02
     13  0.509487D-02 -0.934958D-02 -0.558484D-02  0.726178D-02 -0.483747D-02
     14  0.246322D-01  0.181028D-02 -0.368562D-02  0.389155D-02  0.606145D-03
     15  0.157351D-02 -0.844757D-03 -0.397952D-02  0.144511D-02 -0.566436D-03
     16  0.925239D-03  0.592025D-02  0.852680D-03 -0.134879D-02  0.132311D-02
     17 -0.388553D-02 -0.525468D-02  0.352399D-02  0.336205D-02  0.778057D-03
     18 -0.145551D-02  0.243673D-02  0.630728D-02 -0.921678D-02  0.528026D-02
     19 -0.520016D-03 -0.539799D-02 -0.248713D-02  0.150933D-01 -0.625322D-02
     20 -0.388471D-03  0.658971D-02 -0.458718D-02 -0.332373D-02 -0.890574D-03
                6             7             8             9            10 
      6  0.354138D+00
      7 -0.202631D-02  0.654128D-02
      8 -0.133439D-01 -0.214304D-02  0.404408D-01
      9 -0.211203D-01 -0.276235D-02 -0.963469D-02  0.566956D-01
     10  0.306968D-01 -0.147119D-02 -0.195938D-01 -0.285188D-01  0.848023D-01
     11 -0.242468D-01  0.170356D-02 -0.885512D-02 -0.105262D-02  0.132580D-01
     12  0.187362D-01  0.977881D-03 -0.173508D-01  0.108788D-01 -0.125192D-01
     13  0.635430D-02  0.340450D-02  0.165000D-01 -0.250901D-01 -0.399828D-01
     14  0.428223D-01  0.889615D-03 -0.506397D-02 -0.470661D-02  0.187999D-01
     15  0.210563D-01  0.157001D-02 -0.190352D-01 -0.104376D-01  0.305840D-01
     16 -0.174794D-01 -0.148712D-02  0.185697D-01  0.699956D-02 -0.208137D-03
     17 -0.661205D-02  0.315924D-02  0.138438D-02  0.351875D-02 -0.329304D-01
     18  0.751635D-02  0.286014D-03  0.132477D-01 -0.214862D-01  0.115714D-01
     19 -0.959815D-02  0.341525D-02 -0.128123D-01  0.395668D-02 -0.157935D-01
     20  0.382063D-02 -0.205079D-02 -0.977966D-03  0.161387D-01  0.567657D-02
               11            12            13            14            15 
     11  0.634930D-01
     12 -0.312201D-01  0.843130D-01
     13 -0.347047D-01 -0.384074D-01  0.123372D+00
     14  0.302988D-02 -0.391342D-02 -0.854953D-02  0.190736D+00
     15 -0.948277D-02  0.380122D-03  0.664936D-02  0.753441D-02  0.225582D-01
     16  0.115332D-01 -0.298508D-01 -0.448783D-02  0.747616D-03 -0.969129D-02
     17 -0.630722D-02  0.293574D-01  0.385949D-02 -0.766963D-02 -0.114553D-01
     18 -0.248948D-02  0.124647D-01 -0.153381D-01  0.152109D-02 -0.348334D-02
     19  0.196172D-01 -0.114706D-01  0.171812D-01 -0.289154D-02 -0.135613D-02
     20 -0.149743D-01 -0.302454D-02 -0.150408D-02  0.233822D-02  0.581420D-02
               16            17            18            19            20 
     16  0.212772D-01
     17 -0.112001D-01  0.238813D-01
     18 -0.386939D-03  0.351704D-02  0.216334D-01
     19 -0.437167D-02  0.610111D-02 -0.115163D-01  0.234397D-01
     20  0.546757D-02 -0.974362D-02 -0.585862D-02 -0.669100D-02  0.161828D-01
 Leave Link  716 at Wed Mar  6 22:33:23 2024, MaxMem=   104857600 cpu:               0.0 elap:               0.0
 (Enter /opt/g16/l103.exe)

 GradGradGradGradGradGradGradGradGradGradGradGradGradGradGradGradGradGrad
 Berny optimization.
 Red2BG is reusing G-inverse.
 Internal  Forces:  Max     0.013595129 RMS     0.004482312
 Search for a saddle point.
 Step number   1 out of a maximum of    1
 All quantities printed in internal units (Hartrees-Bohrs-Radians)
 Swapping is turned off.
 Second derivative matrix not updated -- analytic derivatives used.
 The second derivative matrix:
                          R1        R2        R3        R4        R5
           R1           0.53011
           R2           0.00142   0.35140
           R3           0.00267   0.00369   0.34196
           R4          -0.00481  -0.00506  -0.00256   0.27790
           R5           0.00198  -0.00086  -0.00351   0.05089  -0.01671
           R6           0.00548   0.00824   0.01596   0.03153  -0.02021
           A1          -0.00138  -0.00115  -0.00438   0.00671   0.00660
           A2           0.00059   0.00459   0.00561  -0.01092   0.00518
           A3          -0.00341   0.00508  -0.00609   0.00522  -0.00451
           A4           0.00398   0.00532  -0.00078  -0.00740   0.00325
           A5           0.00083  -0.00235   0.00289   0.01437  -0.00360
           A6          -0.00694  -0.00271   0.00343  -0.00799   0.00408
           A7           0.00509  -0.00935  -0.00558   0.00726  -0.00484
           A8           0.02463   0.00181  -0.00369   0.00389   0.00061
           D1           0.00157  -0.00084  -0.00398   0.00145  -0.00057
           D2           0.00093   0.00592   0.00085  -0.00135   0.00132
           D3          -0.00389  -0.00525   0.00352   0.00336   0.00078
           D4          -0.00146   0.00244   0.00631  -0.00922   0.00528
           D5          -0.00052  -0.00540  -0.00249   0.01509  -0.00625
           D6          -0.00039   0.00659  -0.00459  -0.00332  -0.00089
                          R6        A1        A2        A3        A4
           R6           0.35414
           A1          -0.00203   0.00654
           A2          -0.01334  -0.00214   0.04044
           A3          -0.02112  -0.00276  -0.00963   0.05670
           A4           0.03070  -0.00147  -0.01959  -0.02852   0.08480
           A5          -0.02425   0.00170  -0.00886  -0.00105   0.01326
           A6           0.01874   0.00098  -0.01735   0.01088  -0.01252
           A7           0.00635   0.00340   0.01650  -0.02509  -0.03998
           A8           0.04282   0.00089  -0.00506  -0.00471   0.01880
           D1           0.02106   0.00157  -0.01904  -0.01044   0.03058
           D2          -0.01748  -0.00149   0.01857   0.00700  -0.00021
           D3          -0.00661   0.00316   0.00138   0.00352  -0.03293
           D4           0.00752   0.00029   0.01325  -0.02149   0.01157
           D5          -0.00960   0.00342  -0.01281   0.00396  -0.01579
           D6           0.00382  -0.00205  -0.00098   0.01614   0.00568
                          A5        A6        A7        A8        D1
           A5           0.06349
           A6          -0.03122   0.08431
           A7          -0.03470  -0.03841   0.12337
           A8           0.00303  -0.00391  -0.00855   0.19074
           D1          -0.00948   0.00038   0.00665   0.00753   0.02256
           D2           0.01153  -0.02985  -0.00449   0.00075  -0.00969
           D3          -0.00631   0.02936   0.00386  -0.00767  -0.01146
           D4          -0.00249   0.01246  -0.01534   0.00152  -0.00348
           D5           0.01962  -0.01147   0.01718  -0.00289  -0.00136
           D6          -0.01497  -0.00302  -0.00150   0.00234   0.00581
                          D2        D3        D4        D5        D6
           D2           0.02128
           D3          -0.01120   0.02388
           D4          -0.00039   0.00352   0.02163
           D5          -0.00437   0.00610  -0.01152   0.02344
           D6           0.00547  -0.00974  -0.00586  -0.00669   0.01618
 ITU=  0
     Eigenvalues ---   -0.03108   0.00025   0.00414   0.00712   0.06753
     Eigenvalues ---    0.07481   0.09615   0.13944   0.16684   0.19352
     Eigenvalues ---    0.28362   0.33986   0.35263   0.39047   0.53285
 Eigenvectors required to have negative eigenvalues:
                          R5        R4        A1        D5        R6
   1                   -0.95545   0.17721   0.14714  -0.09596  -0.07622
                          A2        A5        A3        D4        A4
   1                    0.06940  -0.06812  -0.05142   0.04617   0.04067
 RFO step:  Lambda0=5.110659580D-03 Lambda=-2.01424045D-03.
 Linear search not attempted -- option 19 set.
 Maximum step size (   0.300) exceeded in Quadratic search.
    -- Step size scaled by   0.550
 Iteration  1 RMS(Cart)=  0.08335151 RMS(Int)=  0.01657389
 Iteration  2 RMS(Cart)=  0.02498075 RMS(Int)=  0.00067384
 Iteration  3 RMS(Cart)=  0.00067406 RMS(Int)=  0.00003724
 Iteration  4 RMS(Cart)=  0.00000046 RMS(Int)=  0.00003724
 ITry= 1 IFail=0 DXMaxC= 2.37D-01 DCOld= 1.00D+10 DXMaxT= 3.00D-01 DXLimC= 3.00D+00 Rises=F
 Variable       Old X    -DE/DX   Delta X   Delta X   Delta X     New X
                                 (Linear)    (Quad)   (Total)
    R1        1.81817  -0.00078   0.00000  -0.00205  -0.00205   1.81612
    R2        2.05277   0.00109   0.00000   0.00269   0.00269   2.05546
    R3        2.05898   0.00103   0.00000   0.00051   0.00051   2.05949
    R4        2.11634   0.01360   0.00000  -0.00374  -0.00374   2.11259
    R5        2.98765  -0.01038   0.00000   0.17604   0.17604   3.16369
    R6        2.65623  -0.00908   0.00000  -0.00484  -0.00484   2.65139
    A1        2.51788  -0.00020   0.00000  -0.24080  -0.24080   2.27708
    A2        1.92521   0.00107   0.00000  -0.01454  -0.01452   1.91069
    A3        1.85646  -0.00058   0.00000  -0.00550  -0.00549   1.85097
    A4        1.88021   0.00047   0.00000  -0.00433  -0.00433   1.87587
    A5        1.87596  -0.00117   0.00000   0.01358   0.01351   1.88946
    A6        1.97756   0.00219   0.00000   0.00712   0.00703   1.98459
    A7        1.94501  -0.00213   0.00000   0.00249   0.00242   1.94743
    A8        1.88954   0.00236   0.00000   0.00889   0.00889   1.89843
    D1       -3.08880  -0.00013   0.00000   0.11578   0.11579  -2.97301
    D2       -1.02675   0.00024   0.00000   0.10286   0.10280  -0.92395
    D3        1.14976   0.00079   0.00000   0.12290   0.12295   1.27271
    D4        3.12682   0.00124   0.00000  -0.00030  -0.00031   3.12651
    D5        0.99220  -0.00188   0.00000   0.01659   0.01663   1.00882
    D6       -1.12620  -0.00035   0.00000  -0.00815  -0.00818  -1.13438
         Item               Value     Threshold  Converged?
 Maximum Force            0.013595     0.000450     NO 
 RMS     Force            0.004482     0.000300     NO 
 Maximum Displacement     0.237277     0.001800     NO 
 RMS     Displacement     0.102203     0.001200     NO 
 Predicted change in Energy= 1.256386D-03
 Optimization stopped.
    -- Number of steps exceeded,  NStep=   1
    -- Flag reset to prevent archiving.
                           ----------------------------
                           ! Non-Optimized Parameters !
                           ! (Angstroms and Degrees)  !
 --------------------------                            --------------------------
 ! Name  Definition              Value          Derivative Info.                !
 --------------------------------------------------------------------------------
 ! R1    R(1,7)                  0.961          -DE/DX =   -0.0008              !
 ! R2    R(2,5)                  1.0877         -DE/DX =    0.0011              !
 ! R3    R(3,5)                  1.0898         -DE/DX =    0.001               !
 ! R4    R(4,5)                  1.1179         -DE/DX =    0.0136              !
 ! R5    R(4,6)                  1.6742         -DE/DX =   -0.0104              !
 ! R6    R(5,7)                  1.4031         -DE/DX =   -0.0091              !
 ! A1    A(5,4,6)              130.467          -DE/DX =   -0.0002              !
 ! A2    A(2,5,3)              109.4745         -DE/DX =    0.0011              !
 ! A3    A(2,5,4)              106.0529         -DE/DX =   -0.0006              !
 ! A4    A(2,5,7)              107.4795         -DE/DX =    0.0005              !
 ! A5    A(3,5,4)              108.2583         -DE/DX =   -0.0012              !
 ! A6    A(3,5,7)              113.7084         -DE/DX =    0.0022              !
 ! A7    A(4,5,7)              111.5793         -DE/DX =   -0.0021              !
 ! A8    A(1,7,5)              108.7718         -DE/DX =    0.0024              !
 ! D1    D(6,4,5,2)           -170.3409         -DE/DX =   -0.0001              !
 ! D2    D(6,4,5,3)            -52.9385         -DE/DX =    0.0002              !
 ! D3    D(6,4,5,7)             72.9207         -DE/DX =    0.0008              !
 ! D4    D(2,5,7,1)            179.136          -DE/DX =    0.0012              !
 ! D5    D(3,5,7,1)             57.8014         -DE/DX =   -0.0019              !
 ! D6    D(4,5,7,1)            -64.9952         -DE/DX =   -0.0004              !
 --------------------------------------------------------------------------------
 Largest change from initial coordinates is atom    1       0.000 Angstoms.
 GradGradGradGradGradGradGradGradGradGradGradGradGradGradGradGradGradGrad

 Leave Link  103 at Wed Mar  6 22:33:23 2024, MaxMem=   104857600 cpu:               0.0 elap:               0.0
 (Enter /opt/g16/l202.exe)
                          Input orientation:                          
 ---------------------------------------------------------------------
 Center     Atomic      Atomic             Coordinates (Angstroms)
 Number     Number       Type             X           Y           Z
 ---------------------------------------------------------------------
      1          1           0       -1.410961   -0.912564    0.431708
      2          1           0        0.172788    1.373406   -0.031987
      3          1           0        0.718979   -0.308505   -0.279998
      4          1           0        0.387813    0.306448    1.359135
      5          6           0        0.056670    0.342432    0.289900
      6          9           0        0.629994   -0.647833    2.596169
      7          8           0       -1.301539    0.004196    0.160998
 ---------------------------------------------------------------------
                    Distance matrix (angstroms):
                    1          2          3          4          5
     1  H    0.000000
     2  H    2.819385   0.000000
     3  H    2.325523   1.785682   0.000000
     4  H    2.362562   1.766311   1.781739   0.000000
     5  C    1.936250   1.086279   1.089567   1.119917   0.000000
     6  F    2.986716   3.346886   2.897481   1.580999   2.574529
     7  O    0.962136   2.021292   2.091591   2.093036   1.405614
                    6          7
     6  F    0.000000
     7  O    3.175849   0.000000
 Stoichiometry    CH4FO(2)
 Framework group  C1[X(CH4FO)]
 Deg. of freedom    15
 Full point group                 C1      NOp   1
 RotChk:  IX=0 Diff= 1.40D-15
 Largest Abelian subgroup         C1      NOp   1
 Largest concise Abelian subgroup C1      NOp   1
                         Standard orientation:                         
 ---------------------------------------------------------------------
 Center     Atomic      Atomic             Coordinates (Angstroms)
 Number     Number       Type             X           Y           Z
 ---------------------------------------------------------------------
      1          1           0        0.927416   -1.190138    0.504909
      2          1           0        1.079551    1.388396   -0.625114
      3          1           0        0.584447    1.043096    1.055451
      4          1           0       -0.444017    0.550783   -0.313667
      5          6           0        0.614366    0.661993    0.035146
      6          9           0       -1.826084   -0.156477   -0.014951
      7          8           0        1.325146   -0.544475   -0.087237
 ---------------------------------------------------------------------
 Rotational constants (GHZ):          29.4461628           5.0419079           4.4552853
 Leave Link  202 at Wed Mar  6 22:33:23 2024, MaxMem=   104857600 cpu:               0.0 elap:               0.0
 (Enter /opt/g16/l716.exe)
 Rotating derivatives to standard orientation.
 Dipole        = 0.00000000D+00 0.00000000D+00 0.00000000D+00
 Full mass-weighted force constant matrix:
 Low frequencies --- -652.4290 -129.6786  -28.9225   -0.1167   -0.0322    0.2399
 Low frequencies ---   63.0311  125.1256  159.5894
 ******    1 imaginary frequencies (negative Signs) ****** 
 Diagonal vibrational polarizability:
        0.0000000       0.0000000       0.0000000
 Harmonic frequencies (cm**-1), IR intensities (KM/Mole), Raman scattering
 activities (A**4/AMU), depolarization ratios for plane and unpolarized
 incident light, reduced masses (AMU), force constants (mDyne/A),
 and normal coordinates:
                      1                      2                      3
                      A                      A                      A
 Frequencies --   -651.4274                46.7589               131.0996
 Red. masses --      1.3090                 1.9907                 3.4625
 Frc consts  --      0.3273                 0.0026                 0.0351
 IR Inten    --      0.0000                 0.0000                 0.0000
  Atom  AN      X      Y      Z        X      Y      Z        X      Y      Z
     1   1     0.09   0.02   0.08    -0.19  -0.09  -0.18     0.49  -0.05   0.04
     2   1    -0.44  -0.09  -0.27     0.08   0.10   0.28    -0.18   0.04   0.13
     3   1     0.03   0.01   0.00    -0.61  -0.23  -0.00    -0.40  -0.27  -0.00
     4   1    -0.44  -0.47   0.53     0.01  -0.05  -0.58     0.03  -0.46  -0.30
     5   6    -0.06  -0.06   0.02    -0.16  -0.05  -0.05    -0.10  -0.16  -0.03
     6   9     0.09   0.05  -0.03     0.18   0.04   0.04    -0.18   0.11   0.02
     7   8    -0.02   0.02  -0.01    -0.05   0.01   0.02     0.29   0.04   0.01
                      4                      5                      6
                      A                      A                      A
 Frequencies --    400.6535               923.4234              1073.4858
 Red. masses --      1.1261                 1.4597                 2.1622
 Frc consts  --      0.1065                 0.7333                 1.4680
 IR Inten    --      0.0000                 0.0000                 0.0000
  Atom  AN      X      Y      Z        X      Y      Z        X      Y      Z
     1   1     0.60   0.27   0.70    -0.30   0.31   0.16    -0.04  -0.05   0.04
     2   1     0.07   0.06   0.13     0.03   0.28   0.17    -0.25   0.03  -0.21
     3   1    -0.02  -0.10   0.05    -0.37  -0.36   0.08    -0.24   0.48  -0.01
     4   1     0.03   0.11  -0.11     0.04  -0.60   0.06     0.26  -0.59  -0.31
     5   6    -0.02   0.00   0.02     0.18   0.02  -0.05    -0.04   0.22   0.12
     6   9     0.02   0.00  -0.01    -0.03  -0.02   0.01     0.00  -0.00  -0.00
     7   8    -0.06  -0.02  -0.05    -0.05   0.03  -0.00     0.04  -0.16  -0.06
                      7                      8                      9
                      A                      A                      A
 Frequencies --   1118.5324              1249.9833              1383.5850
 Red. masses --      1.7470                 1.1255                 1.1401
 Frc consts  --      1.2878                 1.0361                 1.2858
 IR Inten    --      0.0000                 0.0000                 0.0000
  Atom  AN      X      Y      Z        X      Y      Z        X      Y      Z
     1   1     0.31  -0.24  -0.15     0.33  -0.33  -0.12    -0.04   0.02  -0.01
     2   1     0.18  -0.45  -0.22     0.52  -0.16   0.06     0.49  -0.19   0.15
     3   1    -0.14   0.41  -0.11    -0.46   0.01  -0.01     0.60  -0.20   0.10
     4   1     0.25  -0.32  -0.34    -0.28  -0.01   0.41     0.04  -0.51  -0.07
     5   6     0.10  -0.11   0.09     0.00   0.09  -0.04    -0.09   0.04  -0.02
     6   9    -0.01  -0.00  -0.00    -0.01  -0.00   0.00     0.00   0.00  -0.00
     7   8    -0.10   0.13  -0.02     0.00  -0.03   0.01    -0.00   0.02   0.01
                     10                     11                     12
                      A                      A                      A
 Frequencies --   1431.2958              1537.7166              2369.3358
 Red. masses --      1.1975                 1.0629                 1.0728
 Frc consts  --      1.4453                 1.4808                 3.5482
 IR Inten    --      0.0000                 0.0000                 0.0000
  Atom  AN      X      Y      Z        X      Y      Z        X      Y      Z
     1   1    -0.45   0.52   0.20     0.08  -0.10  -0.03     0.00   0.03  -0.00
     2   1     0.37  -0.31   0.07     0.02   0.48   0.55    -0.06  -0.09   0.00
     3   1    -0.22   0.35  -0.10     0.14   0.57  -0.24    -0.13  -0.07  -0.05
     4   1    -0.13   0.09   0.15    -0.00  -0.16   0.13     0.85  -0.00   0.49
     5   6    -0.04  -0.06   0.05    -0.01  -0.06  -0.04    -0.06  -0.01  -0.03
     6   9    -0.00   0.00   0.00     0.00   0.00  -0.00     0.01   0.01  -0.00
     7   8     0.06   0.00  -0.06    -0.01  -0.01   0.00    -0.01   0.01   0.00
                     13                     14                     15
                      A                      A                      A
 Frequencies --   3096.6538              3161.8217              3841.6647
 Red. masses --      1.0638                 1.0997                 1.0655
 Frc consts  --      6.0103                 6.4771                 9.2650
 IR Inten    --      0.0000                 0.0000                 0.0000
  Atom  AN      X      Y      Z        X      Y      Z        X      Y      Z
     1   1     0.00   0.02  -0.01    -0.01   0.00   0.00     0.39   0.68  -0.61
     2   1     0.15   0.25  -0.25     0.40   0.61  -0.56     0.00  -0.00   0.00
     3   1    -0.04   0.30   0.87     0.00  -0.14  -0.34    -0.00   0.00  -0.02
     4   1     0.05  -0.00   0.01     0.04  -0.01   0.04    -0.02  -0.01  -0.00
     5   6    -0.02  -0.05  -0.05    -0.04  -0.04   0.07     0.00   0.00   0.00
     6   9     0.00   0.00   0.00     0.00   0.00  -0.00     0.00   0.00   0.00
     7   8    -0.00  -0.00   0.00    -0.00   0.00  -0.00    -0.02  -0.04   0.04

 -------------------
 - Thermochemistry -
 -------------------
 Temperature   298.150 Kelvin.  Pressure   1.00000 Atm.
 Atom     1 has atomic number  1 and mass   1.00783
 Atom     2 has atomic number  1 and mass   1.00783
 Atom     3 has atomic number  1 and mass   1.00783
 Atom     4 has atomic number  1 and mass   1.00783
 Atom     5 has atomic number  6 and mass  12.00000
 Atom     6 has atomic number  9 and mass  18.99840
 Atom     7 has atomic number  8 and mass  15.99491
 Molecular mass:    51.02462 amu.
 Principal axes and moments of inertia in atomic units:
                           1         2         3
     Eigenvalues --    61.28952 357.94807 405.07870
           X            0.99995   0.00766   0.00563
           Y           -0.00744   0.99922  -0.03874
           Z           -0.00592   0.03870   0.99923
 This molecule is an asymmetric top.
 Rotational symmetry number  1.
 Rotational temperatures (Kelvin)      1.41319     0.24197     0.21382
 Rotational constants (GHZ):          29.44616     5.04191     4.45529
    1 imaginary frequencies ignored.
 Zero-point vibrational energy     130189.7 (Joules/Mol)
                                   31.11607 (Kcal/Mol)
 Warning -- explicit consideration of   3 degrees of freedom as
           vibrations may cause significant error
 Vibrational temperatures:     67.28   188.62   576.45  1328.60  1544.51
          (Kelvin)           1609.32  1798.45  1990.67  2059.32  2212.43
                             3408.95  4455.39  4549.16  5527.30
 
 Zero-point correction=                           0.049587 (Hartree/Particle)
 Thermal correction to Energy=                    0.054379
 Thermal correction to Enthalpy=                  0.055323
 Thermal correction to Gibbs Free Energy=         0.021131
 Sum of electronic and zero-point Energies=           -215.190704
 Sum of electronic and thermal Energies=              -215.185911
 Sum of electronic and thermal Enthalpies=            -215.184967
 Sum of electronic and thermal Free Energies=         -215.219159
 
                     E (Thermal)             CV                S
                      KCal/Mol        Cal/Mol-Kelvin    Cal/Mol-Kelvin
 Total                   34.123             12.818             71.964
 Electronic               0.000              0.000              1.377
 Translational            0.889              2.981             37.712
 Rotational               0.889              2.981             23.701
 Vibrational             32.346              6.857              9.173
 Vibration     1          0.595              1.979              4.950
 Vibration     2          0.612              1.922              2.930
 Vibration     3          0.766              1.469              0.960
                       Q            Log10(Q)             Ln(Q)
 Total Bot       0.190731D-09         -9.719578        -22.380156
 Total V=0       0.122649D+14         13.088664         30.137762
 Vib (Bot)       0.197265D-21        -21.704950        -49.977495
 Vib (Bot)    1  0.442238D+01          0.645656          1.486677
 Vib (Bot)    2  0.155461D+01          0.191621          0.441224
 Vib (Bot)    3  0.444651D+00         -0.351981         -0.810467
 Vib (V=0)       0.126850D+02          1.103292          2.540423
 Vib (V=0)    1  0.495055D+01          0.694654          1.599499
 Vib (V=0)    2  0.213304D+01          0.328998          0.757547
 Vib (V=0)    3  0.116911D+01          0.067857          0.156247
 Electronic      0.200000D+01          0.301030          0.693147
 Translational   0.143260D+08          7.156124         16.477583
 Rotational      0.337457D+05          4.528218         10.426608
 ***** Axes restored to original set *****
 -------------------------------------------------------------------
 Center     Atomic                   Forces (Hartrees/Bohr)
 Number     Number              X              Y              Z
 -------------------------------------------------------------------
      1        1          -0.001096034    0.000653467   -0.000995344
      2        1          -0.000087796    0.001451571    0.000943235
      3        1           0.001571970   -0.001299272    0.001347397
      4        1           0.004008175   -0.006465181    0.021650578
      5        6          -0.012989704   -0.001811048   -0.018637749
      6        9          -0.001116463    0.006132900   -0.008316666
      7        8           0.009705741    0.001332157    0.004021823
 -------------------------------------------------------------------
 Cartesian Forces:  Max     0.021650578 RMS     0.007800381
 Force constants in Cartesian coordinates: 
                1             2             3             4             5 
      1  0.660411D-01
      2  0.666290D-01  0.481251D+00
      3 -0.106770D-01 -0.137193D+00  0.459633D-01
      4 -0.863607D-02 -0.236548D-02  0.212041D-03  0.648088D-01
      5 -0.871834D-03 -0.557383D-03  0.254793D-02  0.287716D-01  0.322132D+00
      6 -0.894703D-03 -0.392725D-03  0.845809D-03 -0.938809D-02 -0.852831D-01
      7  0.240618D-02  0.104684D-02 -0.121029D-02  0.459583D-02 -0.167533D-02
      8 -0.946470D-03  0.421167D-02 -0.373559D-03  0.167623D-01 -0.172554D-01
      9  0.516987D-03  0.175025D-02 -0.234963D-02 -0.755018D-02  0.546618D-02
     10  0.118327D-02 -0.275008D-02  0.471780D-03  0.781102D-03 -0.424749D-02
     11  0.404138D-03 -0.424969D-02 -0.250298D-03  0.273566D-02 -0.607621D-04
     12 -0.181731D-02  0.763197D-02 -0.179963D-03  0.359197D-04 -0.828919D-02
     13 -0.821733D-02  0.240173D-02 -0.116319D-02 -0.465514D-01 -0.170532D-01
     14 -0.482733D-01 -0.113739D-01 -0.604023D-02 -0.987426D-03 -0.297678D+00
     15  0.150468D-01 -0.800448D-02  0.635831D-02  0.467515D-02  0.847009D-01
     16 -0.286422D-03  0.698612D-03  0.180848D-03 -0.395070D-03 -0.213697D-04
     17  0.130948D-03  0.161238D-02  0.378106D-03  0.500822D-03 -0.104207D-02
     18 -0.322511D-03 -0.168516D-02 -0.403819D-03  0.150039D-03  0.805294D-03
     19 -0.524909D-01 -0.656592D-01  0.121848D-01 -0.145985D-01 -0.490666D-02
     20 -0.170797D-01 -0.470883D+00  0.140928D+00 -0.454196D-01 -0.554575D-02
     21 -0.185818D-02  0.137901D+00 -0.502336D-01  0.118683D-01  0.587108D-04
                6             7             8             9            10 
      6  0.692977D-01
      7 -0.162135D-02  0.164062D+00
      8 -0.189468D-01 -0.102286D+00  0.159341D+00
      9  0.643318D-02 -0.898829D-01  0.943990D-01  0.124359D+00
     10  0.109519D-02  0.399524D-02  0.832874D-03  0.116101D-01  0.560417D-01
     11  0.298876D-01 -0.233299D-02 -0.419638D-02 -0.114552D-01  0.114016D-01
     12 -0.154198D-01 -0.713905D-02  0.111577D-01 -0.262400D-01  0.414088D-01
     13  0.138064D-01 -0.135098D+00  0.904068D-01  0.893096D-01 -0.283211D-01
     14  0.838878D-01  0.891054D-01 -0.153161D+00 -0.882714D-01  0.403168D-02
     15 -0.677083D-01  0.839527D-01 -0.941193D-01 -0.115746D+00 -0.323610D-01
     16  0.947131D-03  0.204543D-03 -0.323679D-03  0.204955D-02 -0.609761D-03
     17 -0.393954D-02 -0.180575D-03  0.262511D-02 -0.501135D-02 -0.899607D-02
     18  0.553285D-02 -0.107927D-02 -0.197169D-03  0.588881D-02  0.107814D-01
     19 -0.393967D-02 -0.401712D-01 -0.444396D-02 -0.604132D-02 -0.330710D-01
     20 -0.520935D-02  0.163328D-01  0.842848D-02  0.310970D-02 -0.269582D-03
     21  0.103188D-02  0.169888D-01  0.807777D-02  0.765914D-02 -0.330056D-01
               11            12            13            14            15 
     11  0.193649D-01
     12  0.350527D-01  0.174669D+00
     13 -0.187260D-01 -0.678590D-02  0.456478D+00
     14 -0.287608D-01  0.978712D-02 -0.186144D-01  0.601297D+00
     15 -0.372097D-01 -0.172639D+00 -0.612136D-01 -0.650540D-02  0.464851D+00
     16 -0.295727D-02  0.105133D-01 -0.848436D-02 -0.116790D-03 -0.120627D-01
     17  0.801463D-02 -0.386601D-01  0.186652D-01 -0.210214D-02  0.413627D-01
     18 -0.129260D-01  0.465768D-01 -0.236162D-01 -0.190626D-02 -0.561265D-01
     19  0.947537D-02 -0.362315D-01 -0.229826D+00 -0.251415D-01  0.195058D-02
     20  0.988133D-02 -0.166713D-01 -0.570982D-01 -0.108200D+00  0.197819D-01
     21 -0.308851D-02 -0.678815D-02 -0.103452D-01  0.904931D-02 -0.590017D-01
               16            17            18            19            20 
     16  0.463521D-02
     17  0.141915D-02 -0.537423D-02
     18 -0.992306D-03  0.104550D-01 -0.731504D-02
     19  0.493276D-02 -0.115448D-01  0.150838D-01  0.365251D+00
     20  0.129854D-02 -0.372674D-02  0.544588D-02  0.102238D+00  0.570030D+00
     21 -0.633524D-03 -0.459748D-02  0.586260D-02  0.169925D-01 -0.147396D+00
               21 
     21  0.101470D+00
 Red2BG is reusing G-inverse.
 Force constants in internal coordinates: 
                1             2             3             4             5 
      1  0.530108D+00
      2  0.141969D-02  0.351396D+00
      3  0.266850D-02  0.368816D-02  0.341961D+00
      4 -0.480957D-02 -0.506110D-02 -0.256160D-02  0.277899D+00
      5  0.197646D-02 -0.864284D-03 -0.351410D-02  0.508908D-01 -0.167116D-01
      6  0.548462D-02  0.824388D-02  0.159611D-01  0.315329D-01 -0.202093D-01
      7 -0.137956D-02 -0.115358D-02 -0.437585D-02  0.671044D-02  0.660436D-02
      8  0.588920D-03  0.458586D-02  0.560735D-02 -0.109183D-01  0.517697D-02
      9 -0.340513D-02  0.508075D-02 -0.609211D-02  0.522066D-02 -0.450861D-02
     10  0.397716D-02  0.531549D-02 -0.775329D-03 -0.739734D-02  0.324976D-02
     11  0.834864D-03 -0.234919D-02  0.288797D-02  0.143745D-01 -0.360492D-02
     12 -0.693733D-02 -0.271384D-02  0.343354D-02 -0.798601D-02  0.407889D-02
     13  0.509487D-02 -0.934958D-02 -0.558484D-02  0.726178D-02 -0.483747D-02
     14  0.246322D-01  0.181028D-02 -0.368562D-02  0.389155D-02  0.606145D-03
     15  0.157351D-02 -0.844757D-03 -0.397952D-02  0.144511D-02 -0.566436D-03
     16  0.925239D-03  0.592025D-02  0.852680D-03 -0.134879D-02  0.132311D-02
     17 -0.388553D-02 -0.525468D-02  0.352399D-02  0.336205D-02  0.778057D-03
     18 -0.145551D-02  0.243673D-02  0.630728D-02 -0.921678D-02  0.528026D-02
     19 -0.520016D-03 -0.539799D-02 -0.248713D-02  0.150933D-01 -0.625322D-02
     20 -0.388471D-03  0.658971D-02 -0.458718D-02 -0.332373D-02 -0.890574D-03
                6             7             8             9            10 
      6  0.354138D+00
      7 -0.202631D-02  0.654128D-02
      8 -0.133439D-01 -0.214304D-02  0.404408D-01
      9 -0.211203D-01 -0.276235D-02 -0.963469D-02  0.566956D-01
     10  0.306968D-01 -0.147119D-02 -0.195938D-01 -0.285188D-01  0.848023D-01
     11 -0.242468D-01  0.170356D-02 -0.885512D-02 -0.105262D-02  0.132580D-01
     12  0.187362D-01  0.977881D-03 -0.173508D-01  0.108788D-01 -0.125192D-01
     13  0.635430D-02  0.340450D-02  0.165000D-01 -0.250901D-01 -0.399828D-01
     14  0.428223D-01  0.889615D-03 -0.506397D-02 -0.470661D-02  0.187999D-01
     15  0.210563D-01  0.157001D-02 -0.190352D-01 -0.104376D-01  0.305840D-01
     16 -0.174794D-01 -0.148712D-02  0.185697D-01  0.699956D-02 -0.208137D-03
     17 -0.661205D-02  0.315924D-02  0.138438D-02  0.351875D-02 -0.329304D-01
     18  0.751635D-02  0.286014D-03  0.132477D-01 -0.214862D-01  0.115714D-01
     19 -0.959815D-02  0.341525D-02 -0.128123D-01  0.395668D-02 -0.157935D-01
     20  0.382063D-02 -0.205079D-02 -0.977966D-03  0.161387D-01  0.567657D-02
               11            12            13            14            15 
     11  0.634930D-01
     12 -0.312201D-01  0.843130D-01
     13 -0.347047D-01 -0.384074D-01  0.123372D+00
     14  0.302988D-02 -0.391342D-02 -0.854953D-02  0.190736D+00
     15 -0.948277D-02  0.380122D-03  0.664936D-02  0.753441D-02  0.225582D-01
     16  0.115332D-01 -0.298508D-01 -0.448783D-02  0.747616D-03 -0.969129D-02
     17 -0.630722D-02  0.293574D-01  0.385949D-02 -0.766963D-02 -0.114553D-01
     18 -0.248948D-02  0.124647D-01 -0.153381D-01  0.152109D-02 -0.348334D-02
     19  0.196172D-01 -0.114706D-01  0.171812D-01 -0.289154D-02 -0.135613D-02
     20 -0.149743D-01 -0.302454D-02 -0.150408D-02  0.233822D-02  0.581420D-02
               16            17            18            19            20 
     16  0.212772D-01
     17 -0.112001D-01  0.238813D-01
     18 -0.386939D-03  0.351704D-02  0.216334D-01
     19 -0.437167D-02  0.610111D-02 -0.115163D-01  0.234397D-01
     20  0.546757D-02 -0.974362D-02 -0.585862D-02 -0.669100D-02  0.161828D-01
 Leave Link  716 at Wed Mar  6 22:33:23 2024, MaxMem=   104857600 cpu:               0.0 elap:               0.0
 (Enter /opt/g16/l9999.exe)


 THE MOST INCOMPREHENSIBLE THING ABOUT THE WORLD
 IS THAT IT IS COMPREHENSIBLE. -- A. EINSTEIN
 Error termination request processed by link 9999.
 Error termination via Lnk1e in /opt/g16/l9999.exe at Wed Mar  6 22:33:23 2024.
 Job cpu time:       0 days  0 hours  0 minutes  0.4 seconds.
 Elapsed time:       0 days  0 hours  0 minutes  1.2 seconds.
 File lengths (MBytes):  RWF=      6 Int=      0 D2E=      0 Chk=      1 Scr=      1
