 Entering Gaussian System, Link 0=g16
 Initial command:
 /opt/g16/l1.exe "/home/jh-li/scratch/g16/Gau-375482.inp" -scrdir="/home/jh-li/scratch/g16/"
 Entering Link 1 = /opt/g16/l1.exe PID=    375485.
  
 Copyright (c) 1988-2019, Gaussian, Inc.  All Rights Reserved.
  
 This is part of the Gaussian(R) 16 program.  It is based on
 the Gaussian(R) 09 system (copyright 2009, Gaussian, Inc.),
 the Gaussian(R) 03 system (copyright 2003, Gaussian, Inc.),
 the Gaussian(R) 98 system (copyright 1998, Gaussian, Inc.),
 the Gaussian(R) 94 system (copyright 1995, Gaussian, Inc.),
 the Gaussian 92(TM) system (copyright 1992, Gaussian, Inc.),
 the Gaussian 90(TM) system (copyright 1990, Gaussian, Inc.),
 the Gaussian 88(TM) system (copyright 1988, Gaussian, Inc.),
 the Gaussian 86(TM) system (copyright 1986, Carnegie Mellon
 University), and the Gaussian 82(TM) system (copyright 1983,
 Carnegie Mellon University). Gaussian is a federally registered
 trademark of Gaussian, Inc.
  
 This software contains proprietary and confidential information,
 including trade secrets, belonging to Gaussian, Inc.
  
 This software is provided under written license and may be
 used, copied, transmitted, or stored only in accord with that
 written license.
  
 The following legend is applicable only to US Government
 contracts under FAR:
  
                    RESTRICTED RIGHTS LEGEND
  
 Use, reproduction and disclosure by the US Government is
 subject to restrictions as set forth in subparagraphs (a)
 and (c) of the Commercial Computer Software - Restricted
 Rights clause in FAR 52.227-19.
  
 Gaussian, Inc.
 340 Quinnipiac St., Bldg. 40, Wallingford CT 06492
  
  
 ---------------------------------------------------------------
 Warning -- This program may not be used in any manner that
 competes with the business of Gaussian, Inc. or will provide
 assistance to any competitor of Gaussian, Inc.  The licensee
 of this program is prohibited from giving any competitor of
 Gaussian, Inc. access to this program.  By using this program,
 the user acknowledges that Gaussian, Inc. is engaged in the
 business of creating and licensing software in the field of
 computational chemistry and represents and warrants to the
 licensee that it is not a competitor of Gaussian, Inc. and that
 it will not use this program in any manner prohibited above.
 ---------------------------------------------------------------
  

 Cite this work as:
 Gaussian 16, Revision C.01,
 M. J. Frisch, G. W. Trucks, H. B. Schlegel, G. E. Scuseria, 
 M. A. Robb, J. R. Cheeseman, G. Scalmani, V. Barone, 
 G. A. Petersson, H. Nakatsuji, X. Li, M. Caricato, A. V. Marenich, 
 J. Bloino, B. G. Janesko, R. Gomperts, B. Mennucci, H. P. Hratchian, 
 J. V. Ortiz, A. F. Izmaylov, J. L. Sonnenberg, D. Williams-Young, 
 F. Ding, F. Lipparini, F. Egidi, J. Goings, B. Peng, A. Petrone, 
 T. Henderson, D. Ranasinghe, V. G. Zakrzewski, J. Gao, N. Rega, 
 G. Zheng, W. Liang, M. Hada, M. Ehara, K. Toyota, R. Fukuda, 
 J. Hasegawa, M. Ishida, T. Nakajima, Y. Honda, O. Kitao, H. Nakai, 
 T. Vreven, K. Throssell, J. A. Montgomery, Jr., J. E. Peralta, 
 F. Ogliaro, M. J. Bearpark, J. J. Heyd, E. N. Brothers, K. N. Kudin, 
 V. N. Staroverov, T. A. Keith, R. Kobayashi, J. Normand, 
 K. Raghavachari, A. P. Rendell, J. C. Burant, S. S. Iyengar, 
 J. Tomasi, M. Cossi, J. M. Millam, M. Klene, C. Adamo, R. Cammi, 
 J. W. Ochterski, R. L. Martin, K. Morokuma, O. Farkas, 
 J. B. Foresman, and D. J. Fox, Gaussian, Inc., Wallingford CT, 2019.
 
 ******************************************
 Gaussian 16:  ES64L-G16RevC.01  3-Jul-2019
                 6-Mar-2024 
 ******************************************
 %nproc=1
 Will use up to    1 processors via shared memory.
 %oldchk=ts2-opt-freq.chk
 Copying data from "ts2-opt-freq.chk" to current chk file "/home/jh-li/scratch/g16/Gau-375485.chk"
 IOpt=  2 FromEx=T IUOpen= 4 IOptOp= 5 NList=   0 IFRang= 0 IUIn= 4 IUOut= 2.
 ----------------------------------------------------------------------
 #p external="python3 -u ../pes/h4cfo_pes.py" irc=(calcall,stepsize=3,m
 axpoint=100) geom=allcheck
 ----------------------------------------------------------------------
 1/6=10,10=4,18=10,26=1,29=7,38=1,39=3,42=100,44=3,71=1,172=1/1,23;
 2/12=2,29=1,40=1/2;
 3/11=9,14=-4,25=1,30=1,41=9900000,43=2,71=2,140=1/1;
 4/20=17,22=1002,24=3,113=1,114=1/2;
 6/7=2,8=2,9=2,10=2,18=1/1;
 7/25=1,44=-1/16;
 1/6=10,10=4,18=10,26=1,39=3,42=100,44=3,71=1/23(2);
 2/29=1/2;
 99/5=20/99;
 2/29=1/2;
 3/11=9,14=-2,25=1,30=1,41=9900000,43=2,71=2,140=1/1;
 4/16=2,20=17,22=1002,24=3,113=1,114=1/2;
 7/25=1,44=-1/16;
 1/6=10,10=4,18=10,26=1,39=3,42=100,44=3,71=1/23(-4);
 2/29=1/2;
 6/7=2,8=2,9=2,10=2,18=1/1;
 99/5=20/99;
 Leave Link    1 at Wed Mar  6 22:33:55 2024, MaxMem=   104857600 cpu:               0.0 elap:               0.0
 (Enter /opt/g16/l101.exe)
 Structure from the checkpoint file:  "/home/jh-li/scratch/g16/Gau-375485.chk"
 -----------------------
 F + CH3OH -> HF + CH2OH
 -----------------------
 Charge =  0 Multiplicity = 2
 Redundant internal coordinates found in file.  (old form).
 H,0,-1.410961,-0.912564,0.431708
 H,0,0.172788,1.373406,-0.031987
 H,0,0.718979,-0.308505,-0.279998
 H,0,0.387813,0.306448,1.359135
 C,0,0.05667,0.342432,0.2899
 F,0,0.629994,-0.647833,2.596169
 O,0,-1.301539,0.004196,0.160998
 Recover connectivity data from disk.
 ITRead=  0  0  0  0  0  0  0
 MicOpt= -1 -1 -1 -1 -1 -1 -1
 NAtoms=      7 NQM=        7 NQMF=       0 NMMI=      0 NMMIF=      0
                NMic=       0 NMicF=      0.
                    Isotopes and Nuclear Properties:
 (Nuclear quadrupole moments (NQMom) in fm**2, nuclear magnetic moments (NMagM)
  in nuclear magnetons)

  Atom         1           2           3           4           5           6           7
 IAtWgt=           1           1           1           1          12          19          16
 AtmWgt=   1.0078250   1.0078250   1.0078250   1.0078250  12.0000000  18.9984032  15.9949146
 NucSpn=           1           1           1           1           0           1           0
 AtZEff=   1.0000000   1.0000000   1.0000000   1.0000000   3.6000000   6.7500000   5.6000000
 NQMom=    0.0000000   0.0000000   0.0000000   0.0000000   0.0000000   0.0000000   0.0000000
 NMagM=    2.7928460   2.7928460   2.7928460   2.7928460   0.0000000   2.6288670   0.0000000
 AtZNuc=   1.0000000   1.0000000   1.0000000   1.0000000   6.0000000   9.0000000   8.0000000
 Leave Link  101 at Wed Mar  6 22:33:55 2024, MaxMem=   104857600 cpu:               0.2 elap:               0.2
 (Enter /opt/g16/l123.exe)
 IRC-IRC-IRC-IRC-IRC-IRC-IRC-IRC-IRC-IRC-IRC-IRC-IRC-IRC-IRC-IRC-IRC-IRC
 ------------------------------------------------------------------------
 INPUT DATA FOR L123
 ------------------------------------------------------------------------
 GENERAL PARAMETERS:
 Follow reaction path in both directions.
 Maximum points per path      = 100
 Step size                    =   0.030 bohr
 Integration scheme           = HPC                                 
    Redo corrector integration= Yes                                 
    DWI Weight Power          =  2
    DWI will use Hessian update vectors when possible.
    Max correction cycles     =  10
 Initial Hessian              = CalcFC
 Hessian evaluation           = Analytic at all predictor steps
                              = Update at all corrector steps
 Hessian updating method      = Bofill                              
 ------------------------------------------------------------------------
 IRC-IRC-IRC-IRC-IRC-IRC-IRC-IRC-IRC-IRC-IRC-IRC-IRC-IRC-IRC-IRC-IRC-IRC
 Leave Link  123 at Wed Mar  6 22:33:55 2024, MaxMem=   104857600 cpu:               0.0 elap:               0.0
 (Enter /opt/g16/l202.exe)
                          Input orientation:                          
 ---------------------------------------------------------------------
 Center     Atomic      Atomic             Coordinates (Angstroms)
 Number     Number       Type             X           Y           Z
 ---------------------------------------------------------------------
      1          1           0       -1.410961   -0.912564    0.431708
      2          1           0        0.172788    1.373406   -0.031987
      3          1           0        0.718979   -0.308505   -0.279998
      4          1           0        0.387813    0.306448    1.359135
      5          6           0        0.056670    0.342432    0.289900
      6          9           0        0.629994   -0.647833    2.596169
      7          8           0       -1.301539    0.004196    0.160998
 ---------------------------------------------------------------------
                    Distance matrix (angstroms):
                    1          2          3          4          5
     1  H    0.000000
     2  H    2.819385   0.000000
     3  H    2.325523   1.785682   0.000000
     4  H    2.362562   1.766311   1.781739   0.000000
     5  C    1.936250   1.086279   1.089567   1.119917   0.000000
     6  F    2.986716   3.346886   2.897481   1.580999   2.574529
     7  O    0.962136   2.021292   2.091591   2.093036   1.405614
                    6          7
     6  F    0.000000
     7  O    3.175849   0.000000
 Symmetry turned off by external request.
 Stoichiometry    CH4FO(2)
 Framework group  C1[X(CH4FO)]
 Deg. of freedom    15
 Full point group                 C1      NOp   1
 Rotational constants (GHZ):          29.4461628           5.0419079           4.4552853
 Leave Link  202 at Wed Mar  6 22:33:55 2024, MaxMem=   104857600 cpu:               0.0 elap:               0.0
 (Enter /opt/g16/l301.exe)
 Standard basis: STO-3G (5D, 7F)
 Ernie: Thresh=  0.10000D-02 Tol=  0.10000D-05 Strict=F.
    19 basis functions,    57 primitive gaussians,    19 cartesian basis functions
    14 alpha electrons       13 beta electrons
       nuclear repulsion energy        71.2258705262 Hartrees.
 IExCor=    0 DFT=F Ex=HF Corr=None ExCW=0 ScaHFX=  1.000000
 ScaDFX=  1.000000  1.000000  1.000000  1.000000 ScalE2=  1.000000  1.000000
 IRadAn=      5 IRanWt=     -1 IRanGd=            0 ICorTp=0 IEmpDi=  4
 NAtoms=    7 NActive=    7 NUniq=    7 SFac= 1.00D+00 NAtFMM=   60 NAOKFM=F Big=F
 Integral buffers will be    131072 words long.
 Raffenetti 2 integral format.
 Two-electron integral symmetry is turned off.
 Leave Link  301 at Wed Mar  6 22:33:55 2024, MaxMem=   104857600 cpu:               0.0 elap:               0.0
 (Enter /opt/g16/l402.exe)
 External calculation of energy, first and second derivatives.
 Running external command "python3 -u ../pes/h4cfo_pes.py R"
         input file       "/home/jh-li/scratch/g16/Gau-375485.EIn"
         output file      "/home/jh-li/scratch/g16/Gau-375485.EOu"
         message file     "/home/jh-li/scratch/g16/Gau-375485.EMs"
         fchk file        "/home/jh-li/scratch/g16/Gau-375485.EFC"
         mat. el file     "/home/jh-li/scratch/g16/Gau-375485.EUF"
 Recovered energy= -215.240290309     dipole=      0.000000000000      0.000000000000      0.000000000000
 NRF= 0 NRA=   0 NVA=   0 HaveQM=F NVQ=       0
 Convergence limit is  0.750E-04 MaxStp= 10000 StMxLn= 3.00D-04 StpMin= 1.00D-06.
 Convergence criteria             0.00011250 0.00007500 0.00045000 0.00030000
  Step  NS  ND Rises OKQ   Scale  Max. Force  RMS Force Max. Disp.  RMS Disp.     Energy   Flag
     1   0   0   F    T  1.00D+00 0.00000000 0.00000000 0.00000000 0.00000000 -215.2402903 ====
 Running external command "python3 -u ../pes/h4cfo_pes.py R"
         input file       "/home/jh-li/scratch/g16/Gau-375485.EIn"
         output file      "/home/jh-li/scratch/g16/Gau-375485.EOu"
         message file     "/home/jh-li/scratch/g16/Gau-375485.EMs"
         fchk file        "/home/jh-li/scratch/g16/Gau-375485.EFC"
         mat. el file     "/home/jh-li/scratch/g16/Gau-375485.EUF"
 Recovered energy= -215.240290309     dipole=      0.000000000000      0.000000000000      0.000000000000
 Energy=    -215.240290     NIter=   0.
 Dipole moment=       0.000000       0.000000       0.000000
 Leave Link  402 at Wed Mar  6 22:33:56 2024, MaxMem=   104857600 cpu:               0.0 elap:               1.0
 (Enter /opt/g16/l601.exe)
 Leave Link  601 at Wed Mar  6 22:33:56 2024, MaxMem=   104857600 cpu:               0.0 elap:               0.0
 (Enter /opt/g16/l716.exe)
 Dipole        = 0.00000000D+00 0.00000000D+00 0.00000000D+00
 -------------------------------------------------------------------
 Center     Atomic                   Forces (Hartrees/Bohr)
 Number     Number              X              Y              Z
 -------------------------------------------------------------------
      1        1          -0.001074756    0.000572364   -0.001002546
      2        1          -0.000098184    0.001493862    0.000946892
      3        1           0.001564912   -0.001262709    0.001368815
      4        1           0.003974677   -0.006450197    0.021661174
      5        6          -0.012919152   -0.001936418   -0.018671307
      6        9          -0.001116265    0.006133433   -0.008316360
      7        8           0.009659273    0.001437316    0.004021521
 -------------------------------------------------------------------
 Cartesian Forces:  Max     0.021661174 RMS     0.007798019
 Force constants in Cartesian coordinates: 
                1             2             3             4             5 
      1  0.661972D-01
      2  0.666055D-01  0.481812D+00
      3 -0.107014D-01 -0.137274D+00  0.460422D-01
      4 -0.863581D-02 -0.236538D-02  0.212287D-03  0.648801D-01
      5 -0.873395D-03 -0.557587D-03  0.254749D-02  0.287587D-01  0.322397D+00
      6 -0.895962D-03 -0.392331D-03  0.846182D-03 -0.939484D-02 -0.853234D-01
      7  0.240654D-02  0.104715D-02 -0.121022D-02  0.459601D-02 -0.167657D-02
      8 -0.947923D-03  0.421316D-02 -0.374484D-03  0.167619D-01 -0.172566D-01
      9  0.515463D-03  0.175225D-02 -0.234934D-02 -0.754884D-02  0.546640D-02
     10  0.118087D-02 -0.274500D-02  0.471017D-03  0.782772D-03 -0.424921D-02
     11  0.405106D-03 -0.425542D-02 -0.248991D-03  0.273462D-02 -0.567152D-04
     12 -0.181672D-02  0.763864D-02 -0.179833D-03  0.350147D-04 -0.829709D-02
     13 -0.820793D-02  0.240307D-02 -0.116037D-02 -0.466322D-01 -0.170395D-01
     14 -0.482669D-01 -0.113860D-01 -0.602982D-02 -0.982485D-03 -0.297966D+00
     15  0.150511D-01 -0.801225D-02  0.636146D-02  0.467771D-02  0.847443D-01
     16 -0.286571D-03  0.697957D-03  0.181180D-03 -0.395032D-03 -0.208612D-04
     17  0.130420D-03  0.161464D-02  0.378253D-03  0.500729D-03 -0.104310D-02
     18 -0.321533D-03 -0.168701D-02 -0.404248D-03  0.150172D-03  0.806787D-03
     19 -0.526466D-01 -0.656375D-01  0.122048D-01 -0.145991D-01 -0.490547D-02
     20 -0.170530D-01 -0.471446D+00  0.141009D+00 -0.454139D-01 -0.554229D-02
     21 -0.183071D-02  0.137975D+00 -0.503181D-01  0.118643D-01  0.570011D-04
                6             7             8             9            10 
      6  0.693295D-01
      7 -0.162375D-02  0.163974D+00
      8 -0.189462D-01 -0.102202D+00  0.159191D+00
      9  0.643220D-02 -0.898433D-01  0.943188D-01  0.124238D+00
     10  0.109401D-02  0.399557D-02  0.833857D-03  0.116056D-01  0.559986D-01
     11  0.298876D-01 -0.233528D-02 -0.419753D-02 -0.114526D-01  0.113971D-01
     12 -0.154169D-01 -0.713707D-02  0.111540D-01 -0.262460D-01  0.413638D-01
     13  0.138142D-01 -0.134998D+00  0.903222D-01  0.892672D-01 -0.282666D-01
     14  0.839360D-01  0.890127D-01 -0.152995D+00 -0.881816D-01  0.402897D-02
     15 -0.677378D-01  0.839120D-01 -0.940455D-01 -0.115608D+00 -0.323204D-01
     16  0.946939D-03  0.204814D-03 -0.323388D-03  0.204988D-02 -0.605770D-03
     17 -0.393947D-02 -0.180437D-03  0.262439D-02 -0.501220D-02 -0.899203D-02
     18  0.553267D-02 -0.107958D-02 -0.195861D-03  0.588930D-02  0.107810D-01
     19 -0.393820D-02 -0.401792D-01 -0.444353D-02 -0.603763D-02 -0.330759D-01
     20 -0.521007D-02  0.163384D-01  0.842230D-02  0.310787D-02 -0.274866D-03
     21  0.103036D-02  0.169873D-01  0.807997D-02  0.765897D-02 -0.330066D-01
               11            12            13            14            15 
     11  0.193824D-01
     12  0.350859D-01  0.174720D+00
     13 -0.187287D-01 -0.673231D-02  0.456509D+00
     14 -0.287830D-01  0.975685D-02 -0.185556D-01  0.601422D+00
     15 -0.372453D-01 -0.172673D+00 -0.611877D-01 -0.662960D-02  0.464797D+00
     16 -0.295713D-02  0.105168D-01 -0.848673D-02 -0.116851D-03 -0.120588D-01
     17  0.801073D-02 -0.386637D-01  0.186691D-01 -0.210346D-02  0.413647D-01
     18 -0.129281D-01  0.465707D-01 -0.236198D-01 -0.190347D-02 -0.561294D-01
     19  0.947698D-02 -0.362298D-01 -0.229957D+00 -0.251224D-01  0.191308D-02
     20  0.988605D-02 -0.166754D-01 -0.570594D-01 -0.108150D+00  0.198162D-01
     21 -0.308792D-02 -0.678971D-02 -0.103831D-01  0.905641D-02 -0.590434D-01
               16            17            18            19            20 
     16  0.463194D-02
     17  0.141994D-02 -0.537412D-02
     18 -0.995496D-03  0.104571D-01 -0.731381D-02
     19  0.493337D-02 -0.115454D-01  0.150845D-01  0.365553D+00
     20  0.129897D-02 -0.372838D-02  0.544682D-02  0.102171D+00  0.570563D+00
     21 -0.633504D-03 -0.459715D-02  0.586278D-02  0.170082D-01 -0.147491D+00
               21 
     21  0.101608D+00
 Leave Link  716 at Wed Mar  6 22:33:56 2024, MaxMem=   104857600 cpu:               0.0 elap:               0.0
 (Enter /opt/g16/l123.exe)
 IRC-IRC-IRC-IRC-IRC-IRC-IRC-IRC-IRC-IRC-IRC-IRC-IRC-IRC-IRC-IRC-IRC-IRC
          ******** Start new reaction path calculation ********
 Current Structure is TS -> form Hessian eigenvectors.
                            Diagonalizing Hessian.
 Supplied step size of   0.0300 bohr.
    Integration on MW PES will use step size of   0.0343 sqrt(amu)*bohr.
 Point Number:   0          Path Number:   1
 Calculating another point on the path.
 Point Number  1 in FORWARD path direction.
 Using LQA Reaction Path Following.
 IRC-IRC-IRC-IRC-IRC-IRC-IRC-IRC-IRC-IRC-IRC-IRC-IRC-IRC-IRC-IRC-IRC-IRC
 Leave Link  123 at Wed Mar  6 22:33:56 2024, MaxMem=   104857600 cpu:               0.0 elap:               0.0
 (Enter /opt/g16/l202.exe)
                          Input orientation:                          
 ---------------------------------------------------------------------
 Center     Atomic      Atomic             Coordinates (Angstroms)
 Number     Number       Type             X           Y           Z
 ---------------------------------------------------------------------
      1          1           0       -1.248269   -0.762740   -0.684661
      2          1           0        0.336418    1.524694   -1.138323
      3          1           0        0.881534   -0.158053   -1.395009
      4          1           0        0.550988    0.444281    0.248946
      5          6           0        0.219157    0.491708   -0.823712
      6          9           0        0.792411   -0.496435    1.480403
      7          8           0       -1.138435    0.154711   -0.953333
 ---------------------------------------------------------------------
                    Distance matrix (angstroms):
                    1          2          3          4          5
     1  H    0.000000
     2  H    2.819468   0.000000
     3  H    2.325145   1.787366   0.000000
     4  H    2.359205   1.771398   1.781756   0.000000
     5  C    1.935540   1.086182   1.089639   1.123814   0.000000
     6  F    2.987105   3.339254   2.896626   1.568348   2.571769
     7  O    0.962270   2.021453   2.091213   2.093675   1.404787
                    6          7
     6  F    0.000000
     7  O    3.174150   0.000000
 Symmetry turned off by external request.
 Stoichiometry    CH4FO(2)
 Framework group  C1[X(CH4FO)]
 Deg. of freedom    15
 Full point group                 C1      NOp   1
 Rotational constants (GHZ):          29.5111095           5.0484311           4.4620327
 Leave Link  202 at Wed Mar  6 22:33:56 2024, MaxMem=   104857600 cpu:               0.0 elap:               0.0
 (Enter /opt/g16/l301.exe)
 Standard basis: STO-3G (5D, 7F)
 Ernie: Thresh=  0.10000D-02 Tol=  0.10000D-05 Strict=F.
    19 basis functions,    57 primitive gaussians,    19 cartesian basis functions
    14 alpha electrons       13 beta electrons
       nuclear repulsion energy        71.2716973486 Hartrees.
 IExCor=    0 DFT=F Ex=HF Corr=None ExCW=0 ScaHFX=  1.000000
 ScaDFX=  1.000000  1.000000  1.000000  1.000000 ScalE2=  1.000000  1.000000
 IRadAn=      5 IRanWt=     -1 IRanGd=            0 ICorTp=0 IEmpDi=  4
 NAtoms=    7 NActive=    7 NUniq=    7 SFac= 1.00D+00 NAtFMM=   60 NAOKFM=F Big=F
 Integral buffers will be    131072 words long.
 Raffenetti 2 integral format.
 Two-electron integral symmetry is turned off.
 Leave Link  301 at Wed Mar  6 22:33:56 2024, MaxMem=   104857600 cpu:               0.0 elap:               0.0
 (Enter /opt/g16/l402.exe)
 External calculation of energy, first and second derivatives.
 Running external command "python3 -u ../pes/h4cfo_pes.py R"
         input file       "/home/jh-li/scratch/g16/Gau-375485.EIn"
         output file      "/home/jh-li/scratch/g16/Gau-375485.EOu"
         message file     "/home/jh-li/scratch/g16/Gau-375485.EMs"
         fchk file        "/home/jh-li/scratch/g16/Gau-375485.EFC"
         mat. el file     "/home/jh-li/scratch/g16/Gau-375485.EUF"
 Recovered energy= -215.240669528     dipole=      0.000000000000      0.000000000000      0.000000000000
 NRF= 0 NRA=   0 NVA=   0 HaveQM=F NVQ=       0
 Convergence limit is  0.750E-04 MaxStp= 10000 StMxLn= 3.00D-04 StpMin= 1.00D-06.
 Convergence criteria             0.00011250 0.00007500 0.00045000 0.00030000
  Step  NS  ND Rises OKQ   Scale  Max. Force  RMS Force Max. Disp.  RMS Disp.     Energy   Flag
     1   0   0   F    T  1.00D+00 0.00000000 0.00000000 0.00000000 0.00000000 -215.2406695 ====
 Running external command "python3 -u ../pes/h4cfo_pes.py R"
         input file       "/home/jh-li/scratch/g16/Gau-375485.EIn"
         output file      "/home/jh-li/scratch/g16/Gau-375485.EOu"
         message file     "/home/jh-li/scratch/g16/Gau-375485.EMs"
         fchk file        "/home/jh-li/scratch/g16/Gau-375485.EFC"
         mat. el file     "/home/jh-li/scratch/g16/Gau-375485.EUF"
 Recovered energy= -215.240669528     dipole=      0.000000000000      0.000000000000      0.000000000000
 Energy=    -215.240670     NIter=   0.
 Dipole moment=       0.000000       0.000000       0.000000
 Leave Link  402 at Wed Mar  6 22:33:57 2024, MaxMem=   104857600 cpu:               0.0 elap:               1.1
 (Enter /opt/g16/l716.exe)
 Dipole        = 0.00000000D+00 0.00000000D+00 0.00000000D+00
 -------------------------------------------------------------------
 Center     Atomic                   Forces (Hartrees/Bohr)
 Number     Number              X              Y              Z
 -------------------------------------------------------------------
      1        1          -0.001070619    0.000554503   -0.001063900
      2        1          -0.000075941    0.001515644    0.001207877
      3        1           0.001564466   -0.001253824    0.001364108
      4        1           0.004003997   -0.006855904    0.021856019
      5        6          -0.013027760   -0.002230845   -0.018365074
      6        9          -0.001278982    0.006705725   -0.009100784
      7        8           0.009875123    0.001552035    0.004110174
 -------------------------------------------------------------------
 Cartesian Forces:  Max     0.021856019 RMS     0.007901691
 Force constants in Cartesian coordinates: 
                1             2             3             4             5 
      1  0.663496D-01
      2  0.669826D-01  0.482331D+00
      3 -0.106137D-01 -0.136142D+00  0.454421D-01
      4 -0.870915D-02 -0.230930D-02  0.125114D-03  0.648767D-01
      5 -0.823895D-03 -0.639332D-03  0.256442D-02  0.291786D-01  0.323937D+00
      6 -0.894347D-03 -0.374933D-03  0.888188D-03 -0.942187D-02 -0.835403D-01
      7  0.243730D-02  0.108409D-02 -0.126982D-02  0.464803D-02 -0.175595D-02
      8 -0.103766D-02  0.424880D-02 -0.404520D-03  0.168444D-01 -0.171114D-01
      9  0.376080D-03  0.180743D-02 -0.243235D-02 -0.735112D-02  0.525416D-02
     10  0.118179D-02 -0.273252D-02  0.472769D-03  0.804282D-03 -0.439189D-02
     11  0.466079D-03 -0.449355D-02 -0.192301D-03  0.261853D-02 -0.161525D-04
     12 -0.188577D-02  0.798332D-02 -0.222555D-03  0.105621D-03 -0.834814D-02
     13 -0.814853D-02  0.212430D-02 -0.105778D-02 -0.465711D-01 -0.174326D-01
     14 -0.484329D-01 -0.112629D-01 -0.614526D-02 -0.135220D-02 -0.299803D+00
     15  0.151680D-01 -0.842686D-02  0.659565D-02  0.484457D-02  0.832246D-01
     16 -0.285730D-03  0.677038D-03  0.214189D-03 -0.423991D-03 -0.235761D-04
     17  0.116071D-03  0.169789D-02  0.375649D-03  0.561632D-03 -0.106575D-02
     18 -0.287616D-03 -0.182049D-02 -0.404367D-03  0.732217D-04  0.805121D-03
     19 -0.528173D-01 -0.658199D-01  0.121263D-01 -0.146282D-01 -0.475702D-02
     20 -0.172705D-01 -0.471888D+00  0.139952D+00 -0.455476D-01 -0.532728D-02
     21 -0.186254D-02  0.136974D+00 -0.498682D-01  0.116200D-01  0.412992D-04
                6             7             8             9            10 
      6  0.676601D-01
      7 -0.164456D-02  0.163964D+00
      8 -0.189888D-01 -0.101950D+00  0.158742D+00
      9  0.640481D-02 -0.901763D-01  0.944911D-01  0.124425D+00
     10  0.107638D-02  0.385374D-02  0.961262D-03  0.112036D-01  0.551514D-01
     11  0.295219D-01 -0.209476D-02 -0.448573D-02 -0.108575D-01  0.116826D-01
     12 -0.152113D-01 -0.713452D-02  0.116030D-01 -0.268791D-01  0.381638D-01
     13  0.138879D-01 -0.134829D+00  0.898468D-01  0.899164D-01 -0.267767D-01
     14  0.826103D-01  0.885584D-01 -0.152483D+00 -0.884576D-01  0.406191D-02
     15 -0.663714D-01  0.842375D-01 -0.944001D-01 -0.115585D+00 -0.295840D-01
     16  0.986370D-03  0.189220D-03 -0.375919D-03  0.212852D-02 -0.877229D-03
     17 -0.400035D-02 -0.176051D-03  0.284174D-02 -0.520356D-02 -0.948917D-02
     18  0.567695D-02 -0.112794D-02 -0.442435D-03  0.623404D-02  0.115112D-01
     19 -0.398758D-02 -0.402632D-01 -0.428748D-02 -0.608879D-02 -0.333279D-01
     20 -0.521575D-02  0.163384D-01  0.824963D-02  0.296493D-02 -0.935032D-04
     21  0.969007D-03  0.171209D-01  0.813217D-02  0.784850D-02 -0.328548D-01
               11            12            13            14            15 
     11  0.176127D-01
     12  0.363109D-01  0.163158D+00
     13 -0.195065D-01 -0.335910D-02  0.455896D+00
     14 -0.277286D-01  0.101332D-01 -0.173338D-01  0.602917D+00
     15 -0.373190D-01 -0.162741D+00 -0.641018D-01 -0.618754D-02  0.455879D+00
     16 -0.333406D-02  0.112321D-01 -0.870886D-02  0.115590D-03 -0.127362D-01
     17  0.887882D-02 -0.407281D-01  0.192810D-01 -0.291532D-02  0.429695D-01
     18 -0.146721D-01  0.493538D-01 -0.246258D-01 -0.771084D-03 -0.589818D-01
     19  0.101612D-01 -0.371231D-01 -0.230900D+00 -0.256199D-01  0.215957D-02
     20  0.102200D-01 -0.169558D-01 -0.569671D-01 -0.108685D+00  0.201328D-01
     21 -0.278209D-02 -0.747021D-02 -0.106624D-01  0.882354D-02 -0.588296D-01
               16            17            18            19            20 
     16  0.496466D-02
     17  0.160099D-02 -0.565692D-02
     18 -0.124219D-02  0.113398D-01 -0.807694D-02
     19  0.513787D-02 -0.118923D-01  0.156986D-01  0.366828D+00
     20  0.133862D-02 -0.378013D-02  0.555762D-02  0.102209D+00  0.571216D+00
     21 -0.575860D-03 -0.476470D-02  0.620534D-02  0.172206D-01 -0.146432D+00
               21 
     21  0.101154D+00
 Leave Link  716 at Wed Mar  6 22:33:58 2024, MaxMem=   104857600 cpu:               0.0 elap:               0.0
 (Enter /opt/g16/l123.exe)
 IRC-IRC-IRC-IRC-IRC-IRC-IRC-IRC-IRC-IRC-IRC-IRC-IRC-IRC-IRC-IRC-IRC-IRC
 Pt  1 Step number   1 out of a maximum of  10
 Using modified Bulirsch-Stoer corrector integration.
   Using distance weighted interpolants to fit PES.
 PreDWI: IReCr0= 2 IReCr1= 1 IReCr2= 1 IReCr3= 1
 Modified Bulirsch-Stoer Extrapolation Cycles:
    EPS =    0.000010000000000
    Cycle     1 NS=    48
      PEZero:  N= 2 I= 1 D=  8.94D-05 Err=  2.29D-04
    Cycle     2 NS=    64 Truncation Error =  0.000229155
      PEZero:  N= 3 I= 2 D=  8.94D-05 Err=  1.53D-04
      PEZero:  N= 3 I= 1 D=  1.79D-04 Err=  1.55D-07
    Cycle     3 NS=    96 Truncation Error =  0.000000155
 BS completed in    3 cycles and     208 integration steps.
 Maximum DWI energy   std dev =  0.000000567 at pt    -1
 Maximum DWI gradient std dev =  0.001928878 at pt    -1
 SUMMARY OF CORRECTOR INTEGRATION:
   Predictor End Point Energy =  -215.240670
   Old End Point Energy       =  -215.240670
   Corrected End Point Energy =  -215.240877
   Predictor End-Start Dist.  =     0.034326
   Old End-Start Dist.        =     0.034326
   New End-Start Dist.        =     0.029519
   New End-Old End Dist.      =     0.017509
 CORRECTOR INTEGRATION CONVERGENCE:
   Recorrection delta-x convergence threshold:    0.010000
   Delta-x Convergence NOT Met
 IRC-IRC-IRC-IRC-IRC-IRC-IRC-IRC-IRC-IRC-IRC-IRC-IRC-IRC-IRC-IRC-IRC-IRC
 Leave Link  123 at Wed Mar  6 22:33:58 2024, MaxMem=   104857600 cpu:               0.0 elap:               0.0
 (Enter /opt/g16/l202.exe)
                          Input orientation:                          
 ---------------------------------------------------------------------
 Center     Atomic      Atomic             Coordinates (Angstroms)
 Number     Number       Type             X           Y           Z
 ---------------------------------------------------------------------
      1          1           0       -1.248669   -0.762343   -0.684117
      2          1           0        0.335914    1.524765   -1.141929
      3          1           0        0.882194   -0.158626   -1.394172
      4          1           0        0.552151    0.447832    0.254714
      5          6           0        0.218849    0.492151   -0.824718
      6          9           0        0.792524   -0.496843    1.480843
      7          8           0       -1.138396    0.154646   -0.953323
 ---------------------------------------------------------------------
                    Distance matrix (angstroms):
                    1          2          3          4          5
     1  H    0.000000
     2  H    2.819815   0.000000
     3  H    2.325775   1.787696   0.000000
     4  H    2.364081   1.776838   1.787609   0.000000
     5  C    1.935750   1.086564   1.089870   1.130587   0.000000
     6  F    2.987308   3.342802   2.896229   1.566391   2.573484
     7  O    0.962030   2.021482   2.091715   2.098394   1.404479
                    6          7
     6  F    0.000000
     7  O    3.174595   0.000000
 Symmetry turned off by external request.
 Stoichiometry    CH4FO(2)
 Framework group  C1[X(CH4FO)]
 Deg. of freedom    15
 Full point group                 C1      NOp   1
 Rotational constants (GHZ):          29.4905904           5.0453691           4.4592628
 Leave Link  202 at Wed Mar  6 22:33:58 2024, MaxMem=   104857600 cpu:               0.0 elap:               0.0
 (Enter /opt/g16/l301.exe)
 Standard basis: STO-3G (5D, 7F)
 Ernie: Thresh=  0.10000D-02 Tol=  0.10000D-05 Strict=F.
    19 basis functions,    57 primitive gaussians,    19 cartesian basis functions
    14 alpha electrons       13 beta electrons
       nuclear repulsion energy        71.2437640574 Hartrees.
 IExCor=    0 DFT=F Ex=HF Corr=None ExCW=0 ScaHFX=  1.000000
 ScaDFX=  1.000000  1.000000  1.000000  1.000000 ScalE2=  1.000000  1.000000
 IRadAn=      5 IRanWt=     -1 IRanGd=            0 ICorTp=0 IEmpDi=  4
 NAtoms=    7 NActive=    7 NUniq=    7 SFac= 1.00D+00 NAtFMM=   60 NAOKFM=F Big=F
 Integral buffers will be    131072 words long.
 Raffenetti 2 integral format.
 Two-electron integral symmetry is turned off.
 Leave Link  301 at Wed Mar  6 22:33:58 2024, MaxMem=   104857600 cpu:               0.1 elap:               0.1
 (Enter /opt/g16/l402.exe)
 External calculation of energy and first derivatives.
 Running external command "python3 -u ../pes/h4cfo_pes.py R"
         input file       "/home/jh-li/scratch/g16/Gau-375485.EIn"
         output file      "/home/jh-li/scratch/g16/Gau-375485.EOu"
         message file     "/home/jh-li/scratch/g16/Gau-375485.EMs"
         fchk file        "/home/jh-li/scratch/g16/Gau-375485.EFC"
         mat. el file     "/home/jh-li/scratch/g16/Gau-375485.EUF"
 Recovered energy= -215.240876758     dipole=      0.000000000000      0.000000000000      0.000000000000
 NRF= 0 NRA=   0 NVA=   0 HaveQM=F NVQ=       0
 Convergence limit is  0.750E-04 MaxStp= 10000 StMxLn= 3.00D-04 StpMin= 1.00D-06.
 Convergence criteria             0.00011250 0.00007500 0.00045000 0.00030000
  Step  NS  ND Rises OKQ   Scale  Max. Force  RMS Force Max. Disp.  RMS Disp.     Energy   Flag
     1   0   0   F    T  1.00D+00 0.00000000 0.00000000 0.00000000 0.00000000 -215.2408768 ====
 Running external command "python3 -u ../pes/h4cfo_pes.py R"
         input file       "/home/jh-li/scratch/g16/Gau-375485.EIn"
         output file      "/home/jh-li/scratch/g16/Gau-375485.EOu"
         message file     "/home/jh-li/scratch/g16/Gau-375485.EMs"
         fchk file        "/home/jh-li/scratch/g16/Gau-375485.EFC"
         mat. el file     "/home/jh-li/scratch/g16/Gau-375485.EUF"
 Recovered energy= -215.240876758     dipole=      0.000000000000      0.000000000000      0.000000000000
 Energy=    -215.240877     NIter=   0.
 Dipole moment=       0.000000       0.000000       0.000000
 Leave Link  402 at Wed Mar  6 22:33:58 2024, MaxMem=   104857600 cpu:               0.0 elap:               0.4
 (Enter /opt/g16/l716.exe)
 Dipole        = 0.00000000D+00 0.00000000D+00 0.00000000D+00
 -------------------------------------------------------------------
 Center     Atomic                   Forces (Hartrees/Bohr)
 Number     Number              X              Y              Z
 -------------------------------------------------------------------
      1        1          -0.000996195    0.000269517   -0.000967740
      2        1          -0.000104566    0.001397688    0.001412650
      3        1           0.001482220   -0.001310812    0.001658898
      4        1           0.003311256   -0.007230920    0.019381353
      5        6          -0.012445546   -0.002244946   -0.015896703
      6        9          -0.001404663    0.007182070   -0.009646884
      7        8           0.010147779    0.001924887    0.004066906
 -------------------------------------------------------------------
 Cartesian Forces:  Max     0.019381353 RMS     0.007348446
 Leave Link  716 at Wed Mar  6 22:33:58 2024, MaxMem=   104857600 cpu:               0.0 elap:               0.0
 (Enter /opt/g16/l123.exe)
 IRC-IRC-IRC-IRC-IRC-IRC-IRC-IRC-IRC-IRC-IRC-IRC-IRC-IRC-IRC-IRC-IRC-IRC
 Error in corrector energy =           0.0000001120
 Magnitude of corrector gradient =     0.0335250801
 Magnitude of analytic gradient =      0.0336748078
 Magnitude of difference =             0.0002143967
 Angle between gradients (degrees)=    0.2617
 Pt  1 Step number   2 out of a maximum of  10
 Using modified Bulirsch-Stoer corrector integration.
   Using distance weighted interpolants to fit PES.
 PreDWI: IReCr0= 2 IReCr1= 1 IReCr2= 1 IReCr3= 1
 Modified Bulirsch-Stoer Extrapolation Cycles:
    EPS =    0.000010000000000
    Cycle     1 NS=    48
      PEZero:  N= 2 I= 1 D=  8.94D-05 Err=  2.29D-04
    Cycle     2 NS=    64 Truncation Error =  0.000229412
      PEZero:  N= 3 I= 2 D=  8.94D-05 Err=  1.53D-04
      PEZero:  N= 3 I= 1 D=  1.79D-04 Err=  1.50D-07
    Cycle     3 NS=    96 Truncation Error =  0.000000150
 BS completed in    3 cycles and     208 integration steps.
 Maximum DWI energy   std dev =  0.000001096 at pt     1
 Maximum DWI gradient std dev =  0.002522489 at pt     1
 SUMMARY OF CORRECTOR INTEGRATION:
   Predictor End Point Energy =  -215.240670
   Old End Point Energy       =  -215.240877
   Corrected End Point Energy =  -215.240877
   Predictor End-Start Dist.  =     0.034326
   Old End-Start Dist.        =     0.029519
   New End-Start Dist.        =     0.029507
   New End-Old End Dist.      =     0.000030
 CORRECTOR INTEGRATION CONVERGENCE:
   Recorrection delta-x convergence threshold:    0.010000
   Delta-x Convergence Met
 Point Number:   1          Path Number:   1
                    CURRENT STRUCTURE
                Cartesian Coordinates (Ang):                
 ---------------------------------------------------------------------
 Center     Atomic                     Coordinates (Angstroms)
 Number     Number                        X           Y           Z
 ---------------------------------------------------------------------
      1          1                   -1.248667   -0.762343   -0.684115
      2          1                    0.335914    1.524762   -1.141935
      3          1                    0.882192   -0.158625   -1.394173
      4          1                    0.552156    0.447841    0.254718
      5          6                    0.218849    0.492151   -0.824719
      6          9                    0.792524   -0.496844    1.480843
      7          8                   -1.138397    0.154646   -0.953323
 ---------------------------------------------------------------------
   CHANGE IN THE REACTION COORDINATE =    0.02951
   NET REACTION COORDINATE UP TO THIS POINT =    0.02951
  # OF POINTS ALONG THE PATH =   1
  # OF STEPS =   2

 Calculating another point on the path.
 Point Number  2 in FORWARD path direction.
 Using LQA Reaction Path Following.
   LQA: T_Est iteration completed in    2 iterations.
 IRC-IRC-IRC-IRC-IRC-IRC-IRC-IRC-IRC-IRC-IRC-IRC-IRC-IRC-IRC-IRC-IRC-IRC
 Leave Link  123 at Wed Mar  6 22:33:58 2024, MaxMem=   104857600 cpu:               0.0 elap:               0.0
 (Enter /opt/g16/l202.exe)
                          Input orientation:                          
 ---------------------------------------------------------------------
 Center     Atomic      Atomic             Coordinates (Angstroms)
 Number     Number       Type             X           Y           Z
 ---------------------------------------------------------------------
      1          1           0       -1.249466   -0.762277   -0.684937
      2          1           0        0.335816    1.525902   -1.140382
      3          1           0        0.883429   -0.159827   -1.392476
      4          1           0        0.554499    0.440963    0.269806
      5          6           0        0.217966    0.491970   -0.825705
      6          9           0        0.792448   -0.496470    1.480346
      7          8           0       -1.137814    0.154771   -0.953096
 ---------------------------------------------------------------------
                    Distance matrix (angstroms):
                    1          2          3          4          5
     1  H    0.000000
     2  H    2.820693   0.000000
     3  H    2.326542   1.790283   0.000000
     4  H    2.369306   1.792636   1.797867   0.000000
     5  C    1.935538   1.087164   1.090372   1.147171   0.000000
     6  F    2.988062   3.341664   2.893910   1.549454   2.573891
     7  O    0.961953   2.021549   2.092236   2.107443   1.402879
                    6          7
     6  F    0.000000
     7  O    3.173589   0.000000
 Symmetry turned off by external request.
 Stoichiometry    CH4FO(2)
 Framework group  C1[X(CH4FO)]
 Deg. of freedom    15
 Full point group                 C1      NOp   1
 Rotational constants (GHZ):          29.5244573           5.0465301           4.4612659
 Leave Link  202 at Wed Mar  6 22:33:58 2024, MaxMem=   104857600 cpu:               0.0 elap:               0.0
 (Enter /opt/g16/l301.exe)
 Standard basis: STO-3G (5D, 7F)
 Ernie: Thresh=  0.10000D-02 Tol=  0.10000D-05 Strict=F.
    19 basis functions,    57 primitive gaussians,    19 cartesian basis functions
    14 alpha electrons       13 beta electrons
       nuclear repulsion energy        71.2434504756 Hartrees.
 IExCor=    0 DFT=F Ex=HF Corr=None ExCW=0 ScaHFX=  1.000000
 ScaDFX=  1.000000  1.000000  1.000000  1.000000 ScalE2=  1.000000  1.000000
 IRadAn=      5 IRanWt=     -1 IRanGd=            0 ICorTp=0 IEmpDi=  4
 NAtoms=    7 NActive=    7 NUniq=    7 SFac= 1.00D+00 NAtFMM=   60 NAOKFM=F Big=F
 Integral buffers will be    131072 words long.
 Raffenetti 2 integral format.
 Two-electron integral symmetry is turned off.
 Leave Link  301 at Wed Mar  6 22:33:58 2024, MaxMem=   104857600 cpu:               0.0 elap:               0.0
 (Enter /opt/g16/l402.exe)
 External calculation of energy, first and second derivatives.
 Running external command "python3 -u ../pes/h4cfo_pes.py R"
         input file       "/home/jh-li/scratch/g16/Gau-375485.EIn"
         output file      "/home/jh-li/scratch/g16/Gau-375485.EOu"
         message file     "/home/jh-li/scratch/g16/Gau-375485.EMs"
         fchk file        "/home/jh-li/scratch/g16/Gau-375485.EFC"
         mat. el file     "/home/jh-li/scratch/g16/Gau-375485.EUF"
 Recovered energy= -215.241590431     dipole=      0.000000000000      0.000000000000      0.000000000000
 NRF= 0 NRA=   0 NVA=   0 HaveQM=F NVQ=       0
 Convergence limit is  0.750E-04 MaxStp= 10000 StMxLn= 3.00D-04 StpMin= 1.00D-06.
 Convergence criteria             0.00011250 0.00007500 0.00045000 0.00030000
  Step  NS  ND Rises OKQ   Scale  Max. Force  RMS Force Max. Disp.  RMS Disp.     Energy   Flag
     1   0   0   F    T  1.00D+00 0.00000000 0.00000000 0.00000000 0.00000000 -215.2415904 ====
 Running external command "python3 -u ../pes/h4cfo_pes.py R"
         input file       "/home/jh-li/scratch/g16/Gau-375485.EIn"
         output file      "/home/jh-li/scratch/g16/Gau-375485.EOu"
         message file     "/home/jh-li/scratch/g16/Gau-375485.EMs"
         fchk file        "/home/jh-li/scratch/g16/Gau-375485.EFC"
         mat. el file     "/home/jh-li/scratch/g16/Gau-375485.EUF"
 Recovered energy= -215.241590431     dipole=      0.000000000000      0.000000000000      0.000000000000
 Energy=    -215.241590     NIter=   0.
 Dipole moment=       0.000000       0.000000       0.000000
 Leave Link  402 at Wed Mar  6 22:33:59 2024, MaxMem=   104857600 cpu:               0.1 elap:               1.0
 (Enter /opt/g16/l716.exe)
 Dipole        = 0.00000000D+00 0.00000000D+00 0.00000000D+00
 -------------------------------------------------------------------
 Center     Atomic                   Forces (Hartrees/Bohr)
 Number     Number              X              Y              Z
 -------------------------------------------------------------------
      1        1          -0.000802121   -0.000081157   -0.000904554
      2        1          -0.000110710    0.001189573    0.002075027
      3        1           0.001311717   -0.001401075    0.002172153
      4        1           0.002349038   -0.008477184    0.015995665
      5        6          -0.011675405   -0.002573730   -0.011803340
      6        9          -0.001851522    0.008809916   -0.011647900
      7        8           0.010769096    0.002521122    0.004121580
 -------------------------------------------------------------------
 Cartesian Forces:  Max     0.015995665 RMS     0.006856128
 Force constants in Cartesian coordinates: 
                1             2             3             4             5 
      1  0.664543D-01
      2  0.681652D-01  0.484254D+00
      3 -0.109596D-01 -0.136308D+00  0.452396D-01
      4 -0.889422D-02 -0.208886D-02 -0.133324D-04  0.650816D-01
      5 -0.768253D-03 -0.726930D-03  0.261318D-02  0.289364D-01  0.323258D+00
      6 -0.790686D-03 -0.218571D-03  0.948497D-03 -0.970676D-02 -0.825675D-01
      7  0.256899D-02  0.141932D-02 -0.151222D-02  0.458924D-02 -0.172837D-02
      8 -0.114951D-02  0.437871D-02 -0.436177D-03  0.172150D-01 -0.176854D-01
      9  0.256335D-03  0.195871D-02 -0.260600D-02 -0.710136D-02  0.495717D-02
     10  0.117418D-02 -0.241721D-02  0.272430D-03  0.811625D-03 -0.447132D-02
     11  0.548932D-03 -0.483579D-02 -0.100702D-03  0.227181D-02  0.564320D-03
     12 -0.235601D-02  0.859003D-02 -0.398660D-03  0.117450D-03 -0.792910D-02
     13 -0.798811D-02  0.108140D-02 -0.643822D-03 -0.463786D-01 -0.172910D-01
     14 -0.488058D-01 -0.112843D-01 -0.624502D-02 -0.101360D-02 -0.298907D+00
     15  0.157568D-01 -0.935177D-02  0.693318D-02  0.515737D-02  0.818878D-01
     16 -0.229861D-03  0.610681D-03  0.352207D-03 -0.457492D-03 -0.533398D-04
     17  0.998086D-04  0.187263D-02  0.319818D-03  0.663558D-03 -0.130147D-02
     18 -0.115945D-03 -0.207203D-02 -0.282552D-03 -0.318037D-04  0.867565D-03
     19 -0.530766D-01 -0.667628D-01  0.125010D-01 -0.147559D-01 -0.463092D-02
     20 -0.180911D-01 -0.473664D+00  0.140165D+00 -0.459906D-01 -0.522809D-02
     21 -0.179012D-02  0.137403D+00 -0.498353D-01  0.115738D-01  0.171664D-03
                6             7             8             9            10 
      6  0.663620D-01
      7 -0.170231D-02  0.164755D+00
      8 -0.187210D-01 -0.102445D+00  0.159984D+00
      9  0.666742D-02 -0.895378D-01  0.937978D-01  0.121663D+00
     10  0.944345D-03  0.363851D-02  0.121928D-02  0.100796D-01  0.544397D-01
     11  0.280933D-01 -0.178561D-02 -0.510187D-02 -0.936288D-02  0.139031D-01
     12 -0.150078D-01 -0.671201D-02  0.118365D-01 -0.274026D-01  0.250548D-01
     13  0.143506D-01 -0.135275D+00  0.898652D-01  0.903318D-01 -0.250198D-01
     14  0.828792D-01  0.883952D-01 -0.152974D+00 -0.885171D-01  0.296875D-02
     15 -0.656871D-01  0.835309D-01 -0.937757D-01 -0.113100D+00 -0.174189D-01
     16  0.103712D-02  0.138607D-03 -0.414311D-03  0.224929D-02 -0.203177D-02
     17 -0.416226D-02 -0.202391D-03  0.325990D-02 -0.557016D-02 -0.107935D-01
     18  0.581923D-02 -0.127274D-02 -0.804482D-03  0.674965D-02  0.129138D-01
     19 -0.413020D-02 -0.404162D-01 -0.428856D-02 -0.626929D-02 -0.330038D-01
     20 -0.529124D-02  0.163509D-01  0.814141D-02  0.273522D-02 -0.410467D-03
     21  0.913870D-03  0.172105D-01  0.809350D-02  0.804408D-02 -0.318551D-01
               11            12            13            14            15 
     11  0.165286D-01
     12  0.450601D-01  0.120239D+00
     13 -0.220912D-01  0.880139D-02  0.456769D+00
     14 -0.285569D-01  0.623968D-02 -0.156439D-01  0.605445D+00
     15 -0.428976D-01 -0.123255D+00 -0.758439D-01 -0.358760D-02  0.416377D+00
     16 -0.422728D-02  0.126983D-01 -0.884965D-02  0.406813D-03 -0.138593D-01
     17  0.108210D-01 -0.464686D-01  0.208162D-01 -0.362484D-02  0.466790D-01
     18 -0.187373D-01  0.543009D-01 -0.259368D-01  0.674584D-03 -0.630624D-01
     19  0.113745D-01 -0.376067D-01 -0.233293D+00 -0.263115D-01  0.266643D-02
     20  0.105699D-01 -0.173315D-01 -0.567231D-01 -0.110061D+00  0.210405D-01
     21 -0.204819D-02 -0.848072D-02 -0.110632D-01  0.856308D-02 -0.582463D-01
               16            17            18            19            20 
     16  0.602160D-02
     17  0.222736D-02 -0.700414D-02
     18 -0.200950D-02  0.143131D-01 -0.101161D-01
     19  0.540452D-02 -0.128095D-01  0.164532D-01  0.369169D+00
     20  0.144891D-02 -0.402333D-02  0.575581D-02  0.103421D+00  0.574269D+00
     21 -0.461811D-03 -0.512052D-02  0.659511D-02  0.163918D-01 -0.147069D+00
               21 
     21  0.101019D+00
 Leave Link  716 at Wed Mar  6 22:33:59 2024, MaxMem=   104857600 cpu:               0.0 elap:               0.0
 (Enter /opt/g16/l123.exe)
 IRC-IRC-IRC-IRC-IRC-IRC-IRC-IRC-IRC-IRC-IRC-IRC-IRC-IRC-IRC-IRC-IRC-IRC
 Pt  2 Step number   1 out of a maximum of  10
 Using modified Bulirsch-Stoer corrector integration.
   Using distance weighted interpolants to fit PES.
 PreDWI: IReCr0= 2 IReCr1= 1 IReCr2= 1 IReCr3= 1
 Modified Bulirsch-Stoer Extrapolation Cycles:
    EPS =    0.000010000000000
    Cycle     1 NS=    48
      PEZero:  N= 2 I= 1 D=  1.79D-04 Err=  2.62D-05
    Cycle     2 NS=    64 Truncation Error =  0.000026210
      PEZero:  N= 3 I= 2 D=  1.79D-04 Err=  1.75D-05
      PEZero:  N= 3 I= 1 D=  3.57D-04 Err=  2.72D-08
    Cycle     3 NS=    96 Truncation Error =  0.000000027
 BS completed in    3 cycles and     208 integration steps.
 Maximum DWI energy   std dev =  0.000001563 at pt    47
 Maximum DWI gradient std dev =  0.004161160 at pt    45
 SUMMARY OF CORRECTOR INTEGRATION:
   Predictor End Point Energy =  -215.241590
   Old End Point Energy       =  -215.241590
   Corrected End Point Energy =  -215.241590
   Predictor End-Start Dist.  =     0.034278
   Old End-Start Dist.        =     0.034278
   New End-Start Dist.        =     0.034245
   New End-Old End Dist.      =     0.000211
 CORRECTOR INTEGRATION CONVERGENCE:
   Recorrection delta-x convergence threshold:    0.010000
   Delta-x Convergence Met
 Point Number:   2          Path Number:   1
                    CURRENT STRUCTURE
                Cartesian Coordinates (Ang):                
 ---------------------------------------------------------------------
 Center     Atomic                     Coordinates (Angstroms)
 Number     Number                        X           Y           Z
 ---------------------------------------------------------------------
      1          1                   -1.249452   -0.762281   -0.684924
      2          1                    0.335817    1.525887   -1.140410
      3          1                    0.883410   -0.159809   -1.392498
      4          1                    0.554538    0.441025    0.269832
      5          6                    0.217973    0.491975   -0.825710
      6          9                    0.792449   -0.496475    1.480352
      7          8                   -1.137822    0.154770   -0.953099
 ---------------------------------------------------------------------
   CHANGE IN THE REACTION COORDINATE =    0.03424
   NET REACTION COORDINATE UP TO THIS POINT =    0.06375
  # OF POINTS ALONG THE PATH =   2
  # OF STEPS =   1

 Calculating another point on the path.
 Point Number  3 in FORWARD path direction.
 Using LQA Reaction Path Following.
   LQA: T_Est iteration completed in    2 iterations.
 IRC-IRC-IRC-IRC-IRC-IRC-IRC-IRC-IRC-IRC-IRC-IRC-IRC-IRC-IRC-IRC-IRC-IRC
 Leave Link  123 at Wed Mar  6 22:33:59 2024, MaxMem=   104857600 cpu:               0.0 elap:               0.0
 (Enter /opt/g16/l202.exe)
                          Input orientation:                          
 ---------------------------------------------------------------------
 Center     Atomic      Atomic             Coordinates (Angstroms)
 Number     Number       Type             X           Y           Z
 ---------------------------------------------------------------------
      1          1           0       -1.250112   -0.762435   -0.685776
      2          1           0        0.335725    1.526950   -1.138147
      3          1           0        0.884589   -0.161186   -1.390252
      4          1           0        0.556423    0.432415    0.283786
      5          6           0        0.217067    0.491755   -0.826513
      6          9           0        0.792344   -0.495991    1.479717
      7          8           0       -1.137165    0.154931   -0.952851
 ---------------------------------------------------------------------
                    Distance matrix (angstroms):
                    1          2          3          4          5
     1  H    0.000000
     2  H    2.821489   0.000000
     3  H    2.326958   1.792934   0.000000
     4  H    2.373032   1.807929   1.806228   0.000000
     5  C    1.935307   1.087577   1.090742   1.162518   0.000000
     6  F    2.988641   3.339760   2.890904   1.532269   2.573962
     7  O    0.962105   2.021429   2.092543   2.115303   1.401198
                    6          7
     6  F    0.000000
     7  O    3.172395   0.000000
 Symmetry turned off by external request.
 Stoichiometry    CH4FO(2)
 Framework group  C1[X(CH4FO)]
 Deg. of freedom    15
 Full point group                 C1      NOp   1
 Rotational constants (GHZ):          29.5689467           5.0485600           4.4641255
 Leave Link  202 at Wed Mar  6 22:33:59 2024, MaxMem=   104857600 cpu:               0.0 elap:               0.0
 (Enter /opt/g16/l301.exe)
 Standard basis: STO-3G (5D, 7F)
 Ernie: Thresh=  0.10000D-02 Tol=  0.10000D-05 Strict=F.
    19 basis functions,    57 primitive gaussians,    19 cartesian basis functions
    14 alpha electrons       13 beta electrons
       nuclear repulsion energy        71.2545545049 Hartrees.
 IExCor=    0 DFT=F Ex=HF Corr=None ExCW=0 ScaHFX=  1.000000
 ScaDFX=  1.000000  1.000000  1.000000  1.000000 ScalE2=  1.000000  1.000000
 IRadAn=      5 IRanWt=     -1 IRanGd=            0 ICorTp=0 IEmpDi=  4
 NAtoms=    7 NActive=    7 NUniq=    7 SFac= 1.00D+00 NAtFMM=   60 NAOKFM=F Big=F
 Integral buffers will be    131072 words long.
 Raffenetti 2 integral format.
 Two-electron integral symmetry is turned off.
 Leave Link  301 at Wed Mar  6 22:33:59 2024, MaxMem=   104857600 cpu:               0.1 elap:               0.0
 (Enter /opt/g16/l402.exe)
 External calculation of energy, first and second derivatives.
 Running external command "python3 -u ../pes/h4cfo_pes.py R"
         input file       "/home/jh-li/scratch/g16/Gau-375485.EIn"
         output file      "/home/jh-li/scratch/g16/Gau-375485.EOu"
         message file     "/home/jh-li/scratch/g16/Gau-375485.EMs"
         fchk file        "/home/jh-li/scratch/g16/Gau-375485.EFC"
         mat. el file     "/home/jh-li/scratch/g16/Gau-375485.EUF"
 Recovered energy= -215.242247971     dipole=      0.000000000000      0.000000000000      0.000000000000
 NRF= 0 NRA=   0 NVA=   0 HaveQM=F NVQ=       0
 Convergence limit is  0.750E-04 MaxStp= 10000 StMxLn= 3.00D-04 StpMin= 1.00D-06.
 Convergence criteria             0.00011250 0.00007500 0.00045000 0.00030000
  Step  NS  ND Rises OKQ   Scale  Max. Force  RMS Force Max. Disp.  RMS Disp.     Energy   Flag
     1   0   0   F    T  1.00D+00 0.00000000 0.00000000 0.00000000 0.00000000 -215.2422480 ====
 Running external command "python3 -u ../pes/h4cfo_pes.py R"
         input file       "/home/jh-li/scratch/g16/Gau-375485.EIn"
         output file      "/home/jh-li/scratch/g16/Gau-375485.EOu"
         message file     "/home/jh-li/scratch/g16/Gau-375485.EMs"
         fchk file        "/home/jh-li/scratch/g16/Gau-375485.EFC"
         mat. el file     "/home/jh-li/scratch/g16/Gau-375485.EUF"
 Recovered energy= -215.242247971     dipole=      0.000000000000      0.000000000000      0.000000000000
 Energy=    -215.242248     NIter=   0.
 Dipole moment=       0.000000       0.000000       0.000000
 Leave Link  402 at Wed Mar  6 22:34:00 2024, MaxMem=   104857600 cpu:               0.0 elap:               1.0
 (Enter /opt/g16/l716.exe)
 Dipole        = 0.00000000D+00 0.00000000D+00 0.00000000D+00
 -------------------------------------------------------------------
 Center     Atomic                   Forces (Hartrees/Bohr)
 Number     Number              X              Y              Z
 -------------------------------------------------------------------
      1        1          -0.000591193   -0.000231419   -0.000901070
      2        1          -0.000079824    0.001057338    0.002695946
      3        1           0.001177788   -0.001506242    0.002575167
      4        1           0.001818191   -0.009811261    0.014152277
      5        6          -0.011283052   -0.002933401   -0.008982243
      6        9          -0.002330403    0.010531182   -0.013767711
      7        8           0.011278434    0.002881260    0.004236175
 -------------------------------------------------------------------
 Cartesian Forces:  Max     0.014152277 RMS     0.006885726
 Force constants in Cartesian coordinates: 
                1             2             3             4             5 
      1  0.666878D-01
      2  0.689182D-01  0.484745D+00
      3 -0.110960D-01 -0.135618D+00  0.449096D-01
      4 -0.903386D-02 -0.189945D-02 -0.148653D-03  0.651406D-01
      5 -0.726287D-03 -0.817933D-03  0.263899D-02  0.290063D-01  0.323704D+00
      6 -0.733089D-03 -0.147852D-03  0.102514D-02 -0.990924D-02 -0.813393D-01
      7  0.266271D-02  0.163723D-02 -0.169141D-02  0.459591D-02 -0.174848D-02
      8 -0.124783D-02  0.450146D-02 -0.480664D-03  0.174823D-01 -0.179248D-01
      9  0.119565D-03  0.204938D-02 -0.273424D-02 -0.685197D-02  0.471580D-02
     10  0.116411D-02 -0.227359D-02  0.179635D-03  0.834013D-03 -0.454959D-02
     11  0.625681D-03 -0.509428D-02 -0.427752D-04  0.202278D-02  0.877216D-03
     12 -0.259629D-02  0.891199D-02 -0.448620D-03  0.129456D-03 -0.764036D-02
     13 -0.787142D-02  0.396114D-03 -0.378435D-03 -0.461412D-01 -0.174768D-01
     14 -0.491019D-01 -0.112481D-01 -0.634340D-02 -0.104421D-02 -0.299397D+00
     15  0.160814D-01 -0.987998D-02  0.715592D-02  0.545559D-02  0.805056D-01
     16 -0.193097D-03  0.567520D-03  0.453407D-03 -0.494003D-03 -0.758729D-04
     17  0.800474D-04  0.195824D-02  0.308959D-03  0.745392D-03 -0.141267D-02
     18  0.704957D-05 -0.222621D-02 -0.232149D-03 -0.128438D-03  0.859928D-03
     19 -0.534071D-01 -0.673371D-01  0.126777D-01 -0.149056D-01 -0.443632D-02
     20 -0.185490D-01 -0.474051D+00  0.139544D+00 -0.463198D-01 -0.505556D-02
     21 -0.178170D-02  0.136911D+00 -0.496769D-01  0.114485D-01  0.259716D-03
                6             7             8             9            10 
      6  0.648550D-01
      7 -0.172408D-02  0.165287D+00
      8 -0.185772D-01 -0.102812D+00  0.160721D+00
      9  0.682259D-02 -0.892843D-01  0.934772D-01  0.119908D+00
     10  0.898363D-03  0.345204D-02  0.140491D-02  0.925857D-02  0.535808D-01
     11  0.270355D-01 -0.147670D-02 -0.556936D-02 -0.824062D-02  0.153665D-01
     12 -0.146279D-01 -0.641075D-02  0.120215D-01 -0.279125D-01  0.170013D-01
     13  0.145790D-01 -0.135573D+00  0.899525D-01  0.907893D-01 -0.231480D-01
     14  0.825750D-01  0.882511D-01 -0.153230D+00 -0.887014D-01  0.230690D-02
     15 -0.648269D-01  0.832055D-01 -0.934672D-01 -0.111516D+00 -0.102229D-01
     16  0.107037D-02  0.902136D-04 -0.449076D-03  0.234560D-02 -0.302608D-02
     17 -0.424052D-02 -0.196911D-03  0.355708D-02 -0.585445D-02 -0.117741D-01
     18  0.589642D-02 -0.140156D-02 -0.107777D-02  0.718194D-02  0.140534D-01
     19 -0.417952D-02 -0.405167D-01 -0.432813D-02 -0.636821D-02 -0.328488D-01
     20 -0.529373D-02  0.163497D-01  0.794862D-02  0.255269D-02 -0.482543D-03
     21  0.871614D-03  0.173101D-01  0.809473D-02  0.826727D-02 -0.311758D-01
               11            12            13            14            15 
     11  0.144433D-01
     12  0.509565D-01  0.926802D-01
     13 -0.238441D-01  0.159896D-01  0.457378D+00
     14 -0.278348D-01  0.389318D-02 -0.140941D-01  0.607339D+00
     15 -0.461405D-01 -0.986010D-01 -0.825001D-01 -0.187084D-02  0.392115D+00
     16 -0.496308D-02  0.138930D-01 -0.896010D-02  0.707017D-03 -0.148048D-01
     17  0.123272D-01 -0.507764D-01  0.218434D-01 -0.448546D-02  0.494435D-01
     18 -0.220895D-01  0.582978D-01 -0.269799D-01  0.219125D-02 -0.666069D-01
     19  0.122640D-01 -0.380105D-01 -0.235718D+00 -0.270299D-01  0.277613D-02
     20  0.108416D-01 -0.173707D-01 -0.567620D-01 -0.111108D+00  0.214052D-01
     21 -0.147474D-02 -0.938624D-02 -0.115044D-01  0.826408D-02 -0.577644D-01
               16            17            18            19            20 
     16  0.694148D-02
     17  0.269363D-02 -0.783243D-02
     18 -0.259465D-02  0.165125D-01 -0.115210D-01
     19  0.563757D-02 -0.133905D-01  0.170451D-01  0.371785D+00
     20  0.151883D-02 -0.411294D-02  0.582766D-02  0.104249D+00  0.575541D+00
     21 -0.357126D-03 -0.540122D-02  0.698517D-02  0.160662D-01 -0.146661D+00
               21 
     21  0.100713D+00
 Leave Link  716 at Wed Mar  6 22:34:00 2024, MaxMem=   104857600 cpu:               0.0 elap:               0.0
 (Enter /opt/g16/l123.exe)
 IRC-IRC-IRC-IRC-IRC-IRC-IRC-IRC-IRC-IRC-IRC-IRC-IRC-IRC-IRC-IRC-IRC-IRC
 Pt  3 Step number   1 out of a maximum of  10
 Using modified Bulirsch-Stoer corrector integration.
   Using distance weighted interpolants to fit PES.
 PreDWI: IReCr0= 2 IReCr1= 1 IReCr2= 1 IReCr3= 1
 Modified Bulirsch-Stoer Extrapolation Cycles:
    EPS =    0.000010000000000
    Cycle     1 NS=    48
      PEZero:  N= 2 I= 1 D=  1.79D-04 Err=  2.12D-05
    Cycle     2 NS=    64 Truncation Error =  0.000021175
      PEZero:  N= 3 I= 2 D=  1.79D-04 Err=  1.41D-05
      PEZero:  N= 3 I= 1 D=  3.57D-04 Err=  3.08D-08
    Cycle     3 NS=    96 Truncation Error =  0.000000031
 BS completed in    3 cycles and     208 integration steps.
 Maximum DWI energy   std dev =  0.000000296 at pt    40
 Maximum DWI gradient std dev =  0.002150462 at pt    47
 SUMMARY OF CORRECTOR INTEGRATION:
   Predictor End Point Energy =  -215.242248
   Old End Point Energy       =  -215.242248
   Corrected End Point Energy =  -215.242247
   Predictor End-Start Dist.  =     0.034289
   Old End-Start Dist.        =     0.034289
   New End-Start Dist.        =     0.034264
   New End-Old End Dist.      =     0.000111
 CORRECTOR INTEGRATION CONVERGENCE:
   Recorrection delta-x convergence threshold:    0.010000
   Delta-x Convergence Met
 Point Number:   3          Path Number:   1
                    CURRENT STRUCTURE
                Cartesian Coordinates (Ang):                
 ---------------------------------------------------------------------
 Center     Atomic                     Coordinates (Angstroms)
 Number     Number                        X           Y           Z
 ---------------------------------------------------------------------
      1          1                   -1.250107   -0.762435   -0.685770
      2          1                    0.335725    1.526943   -1.138164
      3          1                    0.884581   -0.161179   -1.390262
      4          1                    0.556442    0.432450    0.283804
      5          6                    0.217071    0.491757   -0.826516
      6          9                    0.792345   -0.495994    1.479720
      7          8                   -1.137169    0.154930   -0.952852
 ---------------------------------------------------------------------
   CHANGE IN THE REACTION COORDINATE =    0.03426
   NET REACTION COORDINATE UP TO THIS POINT =    0.09801
  # OF POINTS ALONG THE PATH =   3
  # OF STEPS =   1

 Calculating another point on the path.
 Point Number  4 in FORWARD path direction.
 Using LQA Reaction Path Following.
   LQA: T_Est iteration completed in    3 iterations.
 IRC-IRC-IRC-IRC-IRC-IRC-IRC-IRC-IRC-IRC-IRC-IRC-IRC-IRC-IRC-IRC-IRC-IRC
 Leave Link  123 at Wed Mar  6 22:34:00 2024, MaxMem=   104857600 cpu:               0.0 elap:               0.0
 (Enter /opt/g16/l202.exe)
                          Input orientation:                          
 ---------------------------------------------------------------------
 Center     Atomic      Atomic             Coordinates (Angstroms)
 Number     Number       Type             X           Y           Z
 ---------------------------------------------------------------------
      1          1           0       -1.250570   -0.762691   -0.686631
      2          1           0        0.335676    1.527909   -1.135339
      3          1           0        0.885646   -0.162656   -1.387678
      4          1           0        0.558011    0.422550    0.296682
      5          6           0        0.216183    0.491508   -0.827143
      6          9           0        0.792216   -0.495422    1.478976
      7          8           0       -1.136484    0.155110   -0.952596
 ---------------------------------------------------------------------
                    Distance matrix (angstroms):
                    1          2          3          4          5
     1  H    0.000000
     2  H    2.822120   0.000000
     3  H    2.327000   1.795592   0.000000
     4  H    2.375430   1.822618   1.812974   0.000000
     5  C    1.934974   1.087837   1.091013   1.176684   0.000000
     6  F    2.989024   3.337206   2.887415   1.515040   2.573720
     7  O    0.962346   2.021194   2.092673   2.122153   1.399503
                    6          7
     6  F    0.000000
     7  O    3.171059   0.000000
 Symmetry turned off by external request.
 Stoichiometry    CH4FO(2)
 Framework group  C1[X(CH4FO)]
 Deg. of freedom    15
 Full point group                 C1      NOp   1
 Rotational constants (GHZ):          29.6215119           5.0513259           4.4676844
 Leave Link  202 at Wed Mar  6 22:34:00 2024, MaxMem=   104857600 cpu:               0.0 elap:               0.0
 (Enter /opt/g16/l301.exe)
 Standard basis: STO-3G (5D, 7F)
 Ernie: Thresh=  0.10000D-02 Tol=  0.10000D-05 Strict=F.
    19 basis functions,    57 primitive gaussians,    19 cartesian basis functions
    14 alpha electrons       13 beta electrons
       nuclear repulsion energy        71.2752170151 Hartrees.
 IExCor=    0 DFT=F Ex=HF Corr=None ExCW=0 ScaHFX=  1.000000
 ScaDFX=  1.000000  1.000000  1.000000  1.000000 ScalE2=  1.000000  1.000000
 IRadAn=      5 IRanWt=     -1 IRanGd=            0 ICorTp=0 IEmpDi=  4
 NAtoms=    7 NActive=    7 NUniq=    7 SFac= 1.00D+00 NAtFMM=   60 NAOKFM=F Big=F
 Integral buffers will be    131072 words long.
 Raffenetti 2 integral format.
 Two-electron integral symmetry is turned off.
 Leave Link  301 at Wed Mar  6 22:34:00 2024, MaxMem=   104857600 cpu:               0.1 elap:               0.1
 (Enter /opt/g16/l402.exe)
 External calculation of energy, first and second derivatives.
 Running external command "python3 -u ../pes/h4cfo_pes.py R"
         input file       "/home/jh-li/scratch/g16/Gau-375485.EIn"
         output file      "/home/jh-li/scratch/g16/Gau-375485.EOu"
         message file     "/home/jh-li/scratch/g16/Gau-375485.EMs"
         fchk file        "/home/jh-li/scratch/g16/Gau-375485.EFC"
         mat. el file     "/home/jh-li/scratch/g16/Gau-375485.EUF"
 Recovered energy= -215.242904582     dipole=      0.000000000000      0.000000000000      0.000000000000
 NRF= 0 NRA=   0 NVA=   0 HaveQM=F NVQ=       0
 Convergence limit is  0.750E-04 MaxStp= 10000 StMxLn= 3.00D-04 StpMin= 1.00D-06.
 Convergence criteria             0.00011250 0.00007500 0.00045000 0.00030000
  Step  NS  ND Rises OKQ   Scale  Max. Force  RMS Force Max. Disp.  RMS Disp.     Energy   Flag
     1   0   0   F    T  1.00D+00 0.00000000 0.00000000 0.00000000 0.00000000 -215.2429046 ====
 Running external command "python3 -u ../pes/h4cfo_pes.py R"
         input file       "/home/jh-li/scratch/g16/Gau-375485.EIn"
         output file      "/home/jh-li/scratch/g16/Gau-375485.EOu"
         message file     "/home/jh-li/scratch/g16/Gau-375485.EMs"
         fchk file        "/home/jh-li/scratch/g16/Gau-375485.EFC"
         mat. el file     "/home/jh-li/scratch/g16/Gau-375485.EUF"
 Recovered energy= -215.242904582     dipole=      0.000000000000      0.000000000000      0.000000000000
 Energy=    -215.242905     NIter=   0.
 Dipole moment=       0.000000       0.000000       0.000000
 Leave Link  402 at Wed Mar  6 22:34:01 2024, MaxMem=   104857600 cpu:               0.0 elap:               1.0
 (Enter /opt/g16/l716.exe)
 Dipole        = 0.00000000D+00 0.00000000D+00 0.00000000D+00
 -------------------------------------------------------------------
 Center     Atomic                   Forces (Hartrees/Bohr)
 Number     Number              X              Y              Z
 -------------------------------------------------------------------
      1        1          -0.000389159   -0.000305897   -0.000923171
      2        1          -0.000022586    0.000986807    0.003269028
      3        1           0.001075170   -0.001619587    0.002899246
      4        1           0.001632647   -0.011220225    0.013559581
      5        6          -0.011194784   -0.003299299   -0.007200896
      6        9          -0.002835207    0.012314281   -0.015980737
      7        8           0.011723756    0.003131404    0.004385169
 -------------------------------------------------------------------
 Cartesian Forces:  Max     0.015980737 RMS     0.007260366
 Force constants in Cartesian coordinates: 
                1             2             3             4             5 
      1  0.669363D-01
      2  0.695631D-01  0.484961D+00
      3 -0.111888D-01 -0.134804D+00  0.445765D-01
      4 -0.916630D-02 -0.170344D-02 -0.290158D-03  0.651463D-01
      5 -0.694616D-03 -0.911627D-03  0.265588D-02  0.291384D-01  0.324397D+00
      6 -0.681256D-03 -0.105815D-03  0.111734D-02 -0.101111D-01 -0.801403D-01
      7  0.275225D-02  0.183911D-02 -0.186598D-02  0.462021D-02 -0.177943D-02
      8 -0.134307D-02  0.463957D-02 -0.536213D-03  0.177407D-01 -0.180930D-01
      9 -0.192439D-04  0.211883D-02 -0.285100D-02 -0.659750D-02  0.450298D-02
     10  0.115422D-02 -0.217894D-02  0.116779D-03  0.861604D-03 -0.460967D-02
     11  0.696289D-03 -0.529843D-02 -0.101867D-04  0.179566D-02  0.111707D-02
     12 -0.276881D-02  0.907859D-02 -0.429521D-03  0.127330D-03 -0.732828D-02
     13 -0.776533D-02 -0.206013D-03 -0.153498D-03 -0.458562D-01 -0.177624D-01
     14 -0.493850D-01 -0.112179D-01 -0.642911D-02 -0.117035D-02 -0.300194D+00
     15  0.163323D-01 -0.102326D-01  0.731743D-02  0.576812D-02  0.791381D-01
     16 -0.160021D-03  0.533511D-03  0.548891D-03 -0.531427D-03 -0.992501D-04
     17  0.636539D-04  0.199287D-02  0.323575D-03  0.818246D-03 -0.148245D-02
     18  0.117714D-03 -0.232720D-02 -0.212330D-03 -0.219101D-03  0.819516D-03
     19 -0.537415D-01 -0.678373D-01  0.128286D-01 -0.150785D-01 -0.420037D-02
     20 -0.189016D-01 -0.474171D+00  0.138807D+00 -0.466261D-01 -0.486065D-02
     21 -0.179073D-02  0.136272D+00 -0.495196D-01  0.113175D-01  0.352160D-03
                6             7             8             9            10 
      6  0.633186D-01
      7 -0.172967D-02  0.165796D+00
      8 -0.184523D-01 -0.103240D+00  0.161471D+00
      9  0.696898D-02 -0.890713D-01  0.932151D-01  0.118203D+00
     10  0.885442D-03  0.327408D-02  0.156288D-02  0.849635D-02  0.527295D-01
     11  0.259900D-01 -0.116999D-02 -0.598306D-02 -0.719177D-02  0.167156D-01
     12 -0.141275D-01 -0.609609D-02  0.121032D-01 -0.283383D-01  0.101724D-01
     13  0.147280D-01 -0.135890D+00  0.901873D-01  0.912051D-01 -0.212453D-01
     14  0.822527D-01  0.881881D-01 -0.153544D+00 -0.889328D-01  0.167781D-02
     15 -0.640157D-01  0.828996D-01 -0.931371D-01 -0.110042D+00 -0.428386D-02
     16  0.109075D-02  0.370139D-04 -0.475360D-03  0.242849D-02 -0.411369D-02
     17 -0.427441D-02 -0.175908D-03  0.380149D-02 -0.610163D-02 -0.126756D-01
     18  0.591566D-02 -0.153827D-02 -0.130095D-02  0.757062D-02  0.151250D-01
     19 -0.418064D-02 -0.405927D-01 -0.442934D-02 -0.643325D-02 -0.326530D-01
     20 -0.525801D-02  0.163420D-01  0.771095D-02  0.238762D-02 -0.493878D-03
     21  0.838344D-03  0.174046D-01  0.809889D-02  0.850591D-02 -0.305182D-01
               11            12            13            14            15 
     11  0.120500D-01
     12  0.564390D-01  0.687570D-01
     13 -0.253569D-01  0.217103D-01  0.458135D+00
     14 -0.265879D-01  0.162786D-02 -0.125748D-01  0.609051D+00
     15 -0.489471D-01 -0.775275D-01 -0.876690D-01 -0.239588D-03  0.371407D+00
     16 -0.568168D-02  0.150275D-01 -0.901961D-02  0.102074D-02 -0.156899D-01
     17  0.136661D-01 -0.547473D-01  0.226655D-01 -0.539985D-02  0.518964D-01
     18 -0.253529D-01  0.619338D-01 -0.278381D-01  0.379285D-02 -0.698974D-01
     19  0.129972D-01 -0.381786D-01 -0.238390D+00 -0.277625D-01  0.263511D-02
     20  0.110290D-01 -0.171788D-01 -0.569364D-01 -0.112074D+00  0.215189D-01
     21 -0.926255D-03 -0.102602D-01 -0.119886D-01  0.793703D-02 -0.572903D-01
               16            17            18            19            20 
     16  0.793426D-02
     17  0.313126D-02 -0.845853D-02
     18 -0.315085D-02  0.185590D-01 -0.126826D-01
     19  0.584954D-02 -0.138269D-01  0.175054D-01  0.374632D+00
     20  0.156992D-02 -0.412126D-02  0.580822D-02  0.105050D+00  0.576491D+00
     21 -0.249632D-03 -0.566097D-02  0.737071D-02  0.158308D-01 -0.146081D+00
               21 
     21  0.100366D+00
 Leave Link  716 at Wed Mar  6 22:34:01 2024, MaxMem=   104857600 cpu:               0.0 elap:               0.0
 (Enter /opt/g16/l123.exe)
 IRC-IRC-IRC-IRC-IRC-IRC-IRC-IRC-IRC-IRC-IRC-IRC-IRC-IRC-IRC-IRC-IRC-IRC
 Pt  4 Step number   1 out of a maximum of  10
 Using modified Bulirsch-Stoer corrector integration.
   Using distance weighted interpolants to fit PES.
 PreDWI: IReCr0= 2 IReCr1= 1 IReCr2= 1 IReCr3= 1
 Modified Bulirsch-Stoer Extrapolation Cycles:
    EPS =    0.000010000000000
    Cycle     1 NS=    48
      PEZero:  N= 2 I= 1 D=  1.79D-04 Err=  1.39D-05
    Cycle     2 NS=    64 Truncation Error =  0.000013883
      PEZero:  N= 3 I= 2 D=  1.79D-04 Err=  9.24D-06
      PEZero:  N= 3 I= 1 D=  3.57D-04 Err=  2.41D-08
    Cycle     3 NS=    96 Truncation Error =  0.000000024
 BS completed in    3 cycles and     208 integration steps.
 Maximum DWI energy   std dev =  0.000000211 at pt    54
 Maximum DWI gradient std dev =  0.001911602 at pt    47
 SUMMARY OF CORRECTOR INTEGRATION:
   Predictor End Point Energy =  -215.242905
   Old End Point Energy       =  -215.242905
   Corrected End Point Energy =  -215.242904
   Predictor End-Start Dist.  =     0.034303
   Old End-Start Dist.        =     0.034303
   New End-Start Dist.        =     0.034290
   New End-Old End Dist.      =     0.000094
 CORRECTOR INTEGRATION CONVERGENCE:
   Recorrection delta-x convergence threshold:    0.010000
   Delta-x Convergence Met
 Point Number:   4          Path Number:   1
                    CURRENT STRUCTURE
                Cartesian Coordinates (Ang):                
 ---------------------------------------------------------------------
 Center     Atomic                     Coordinates (Angstroms)
 Number     Number                        X           Y           Z
 ---------------------------------------------------------------------
      1          1                   -1.250568   -0.762690   -0.686627
      2          1                    0.335675    1.527904   -1.135355
      3          1                    0.885641   -0.162650   -1.387685
      4          1                    0.558027    0.422575    0.296705
      5          6                    0.216185    0.491510   -0.827146
      6          9                    0.792216   -0.495424    1.478979
      7          8                   -1.136487    0.155109   -0.952597
 ---------------------------------------------------------------------
   CHANGE IN THE REACTION COORDINATE =    0.03429
   NET REACTION COORDINATE UP TO THIS POINT =    0.13231
  # OF POINTS ALONG THE PATH =   4
  # OF STEPS =   1

 Calculating another point on the path.
 Point Number  5 in FORWARD path direction.
 Using LQA Reaction Path Following.
   LQA: T_Est iteration completed in    3 iterations.
 IRC-IRC-IRC-IRC-IRC-IRC-IRC-IRC-IRC-IRC-IRC-IRC-IRC-IRC-IRC-IRC-IRC-IRC
 Leave Link  123 at Wed Mar  6 22:34:02 2024, MaxMem=   104857600 cpu:               0.0 elap:               0.0
 (Enter /opt/g16/l202.exe)
                          Input orientation:                          
 ---------------------------------------------------------------------
 Center     Atomic      Atomic             Coordinates (Angstroms)
 Number     Number       Type             X           Y           Z
 ---------------------------------------------------------------------
      1          1           0       -1.250835   -0.762988   -0.687468
      2          1           0        0.335686    1.528780   -1.132184
      3          1           0        0.886574   -0.164159   -1.384964
      4          1           0        0.559472    0.411885    0.308840
      5          6           0        0.215340    0.491248   -0.827639
      6          9           0        0.792069   -0.494797    1.478166
      7          8           0       -1.135812    0.155292   -0.952344
 ---------------------------------------------------------------------
                    Distance matrix (angstroms):
                    1          2          3          4          5
     1  H    0.000000
     2  H    2.822592   0.000000
     3  H    2.326717   1.798170   0.000000
     4  H    2.377009   1.836867   1.818734   0.000000
     5  C    1.934534   1.087982   1.091203   1.190088   0.000000
     6  F    2.989207   3.334228   2.883707   1.497831   2.573255
     7  O    0.962615   2.020921   2.092667   2.128477   1.397866
                    6          7
     6  F    0.000000
     7  O    3.169657   0.000000
 Symmetry turned off by external request.
 Stoichiometry    CH4FO(2)
 Framework group  C1[X(CH4FO)]
 Deg. of freedom    15
 Full point group                 C1      NOp   1
 Rotational constants (GHZ):          29.6779863           5.0545383           4.4716364
 Leave Link  202 at Wed Mar  6 22:34:02 2024, MaxMem=   104857600 cpu:               0.0 elap:               0.0
 (Enter /opt/g16/l301.exe)
 Standard basis: STO-3G (5D, 7F)
 Ernie: Thresh=  0.10000D-02 Tol=  0.10000D-05 Strict=F.
    19 basis functions,    57 primitive gaussians,    19 cartesian basis functions
    14 alpha electrons       13 beta electrons
       nuclear repulsion energy        71.3016832187 Hartrees.
 IExCor=    0 DFT=F Ex=HF Corr=None ExCW=0 ScaHFX=  1.000000
 ScaDFX=  1.000000  1.000000  1.000000  1.000000 ScalE2=  1.000000  1.000000
 IRadAn=      5 IRanWt=     -1 IRanGd=            0 ICorTp=0 IEmpDi=  4
 NAtoms=    7 NActive=    7 NUniq=    7 SFac= 1.00D+00 NAtFMM=   60 NAOKFM=F Big=F
 Integral buffers will be    131072 words long.
 Raffenetti 2 integral format.
 Two-electron integral symmetry is turned off.
 Leave Link  301 at Wed Mar  6 22:34:02 2024, MaxMem=   104857600 cpu:               0.1 elap:               0.0
 (Enter /opt/g16/l402.exe)
 External calculation of energy, first and second derivatives.
 Running external command "python3 -u ../pes/h4cfo_pes.py R"
         input file       "/home/jh-li/scratch/g16/Gau-375485.EIn"
         output file      "/home/jh-li/scratch/g16/Gau-375485.EOu"
         message file     "/home/jh-li/scratch/g16/Gau-375485.EMs"
         fchk file        "/home/jh-li/scratch/g16/Gau-375485.EFC"
         mat. el file     "/home/jh-li/scratch/g16/Gau-375485.EUF"
 Recovered energy= -215.243596697     dipole=      0.000000000000      0.000000000000      0.000000000000
 NRF= 0 NRA=   0 NVA=   0 HaveQM=F NVQ=       0
 Convergence limit is  0.750E-04 MaxStp= 10000 StMxLn= 3.00D-04 StpMin= 1.00D-06.
 Convergence criteria             0.00011250 0.00007500 0.00045000 0.00030000
  Step  NS  ND Rises OKQ   Scale  Max. Force  RMS Force Max. Disp.  RMS Disp.     Energy   Flag
     1   0   0   F    T  1.00D+00 0.00000000 0.00000000 0.00000000 0.00000000 -215.2435967 ====
 Running external command "python3 -u ../pes/h4cfo_pes.py R"
         input file       "/home/jh-li/scratch/g16/Gau-375485.EIn"
         output file      "/home/jh-li/scratch/g16/Gau-375485.EOu"
         message file     "/home/jh-li/scratch/g16/Gau-375485.EMs"
         fchk file        "/home/jh-li/scratch/g16/Gau-375485.EFC"
         mat. el file     "/home/jh-li/scratch/g16/Gau-375485.EUF"
 Recovered energy= -215.243596697     dipole=      0.000000000000      0.000000000000      0.000000000000
 Energy=    -215.243597     NIter=   0.
 Dipole moment=       0.000000       0.000000       0.000000
 Leave Link  402 at Wed Mar  6 22:34:03 2024, MaxMem=   104857600 cpu:               0.0 elap:               1.0
 (Enter /opt/g16/l716.exe)
 Dipole        = 0.00000000D+00 0.00000000D+00 0.00000000D+00
 -------------------------------------------------------------------
 Center     Atomic                   Forces (Hartrees/Bohr)
 Number     Number              X              Y              Z
 -------------------------------------------------------------------
      1        1          -0.000206142   -0.000358530   -0.000957332
      2        1           0.000048099    0.000966652    0.003797327
      3        1           0.001005466   -0.001748896    0.003184957
      4        1           0.001693251   -0.012725287    0.013887000
      5        6          -0.011354562   -0.003638605   -0.006188276
[...]
                6             7             8             9            10 
      6  0.680160D-01
      7 -0.162291D-02  0.163664D+00
      8 -0.190732D-01 -0.101707D+00  0.158263D+00
      9  0.634214D-02 -0.904329D-01  0.947267D-01  0.125342D+00
     10  0.108016D-02  0.392696D-02  0.854714D-03  0.115093D-01  0.554039D-01
     11  0.299103D-01 -0.222660D-02 -0.429503D-02 -0.112408D-01  0.111310D-01
     12 -0.153271D-01 -0.724218D-02  0.115338D-01 -0.265582D-01  0.416958D-01
     13  0.137710D-01 -0.134637D+00  0.897488D-01  0.898769D-01 -0.273987D-01
     14  0.824378D-01  0.885309D-01 -0.152135D+00 -0.885168D-01  0.431362D-02
     15 -0.665035D-01  0.844998D-01 -0.945909D-01 -0.116565D+00 -0.329269D-01
     16  0.967323D-03  0.198341D-03 -0.358995D-03  0.207896D-02 -0.621926D-03
     17 -0.397027D-02 -0.166851D-03  0.272659D-02 -0.508106D-02 -0.916234D-02
     18  0.563819D-02 -0.109467D-02 -0.335619D-03  0.605964D-02  0.111251D-01
     19 -0.394863D-02 -0.401984D-01 -0.429926D-02 -0.602787D-02 -0.332730D-01
     20 -0.518337D-02  0.163113D-01  0.824736D-02  0.300634D-02  0.908973D-05
     21  0.979027D-03  0.171079D-01  0.812860D-02  0.777855D-02 -0.330138D-01
               11            12            13            14            15 
     11  0.180328D-01
     12  0.341877D-01  0.174160D+00
     13 -0.187937D-01 -0.673943D-02  0.455215D+00
     14 -0.275597D-01  0.109406D-01 -0.179082D-01  0.601624D+00
     15 -0.361146D-01 -0.172888D+00 -0.610503D-01 -0.641590D-02  0.466125D+00
     16 -0.307745D-02  0.107841D-01 -0.862692D-02  0.239375D-04 -0.123564D-01
     17  0.832110D-02 -0.392676D-01  0.188709D-01 -0.265042D-02  0.419702D-01
     18 -0.135442D-01  0.479088D-01 -0.241955D-01 -0.123261D-02 -0.577061D-01
     19  0.981440D-02 -0.368270D-01 -0.229756D+00 -0.252766D-01  0.211538D-02
     20  0.100658D-01 -0.167721D-01 -0.568844D-01 -0.108215D+00  0.198578D-01
     21 -0.295292D-02 -0.715606D-02 -0.104948D-01  0.890430D-02 -0.589838D-01
               16            17            18            19            20 
     16  0.472324D-02
     17  0.143680D-02 -0.533490D-02
     18 -0.102676D-02  0.106006D-01 -0.751310D-02
     19  0.503286D-02 -0.116225D-01  0.154033D-01  0.365471D+00
     20  0.129362D-02 -0.370114D-02  0.546067D-02  0.101712D+00  0.570673D+00
     21 -0.614434D-03 -0.466360D-02  0.607079D-02  0.172724D-01 -0.146352D+00
               21 
     21  0.101167D+00
 Leave Link  716 at Wed Mar  6 22:35:53 2024, MaxMem=   104857600 cpu:               0.0 elap:               0.0
 (Enter /opt/g16/l123.exe)
 IRC-IRC-IRC-IRC-IRC-IRC-IRC-IRC-IRC-IRC-IRC-IRC-IRC-IRC-IRC-IRC-IRC-IRC
 Pt100 Step number   1 out of a maximum of  10
 Using modified Bulirsch-Stoer corrector integration.
   Using distance weighted interpolants to fit PES.
 PreDWI: IReCr0= 2 IReCr1= 1 IReCr2= 1 IReCr3= 1
 Modified Bulirsch-Stoer Extrapolation Cycles:
    EPS =    0.000010000000000
    Cycle     1 NS=    48
      PEZero:  N= 2 I= 1 D=  1.78D-04 Err=  4.50D-05
    Cycle     2 NS=    64 Truncation Error =  0.000045023
      PEZero:  N= 3 I= 2 D=  1.78D-04 Err=  2.94D-05
      PEZero:  N= 3 I= 1 D=  3.55D-04 Err=  8.87D-07
    Cycle     3 NS=    96 Truncation Error =  0.000000887
 BS completed in    3 cycles and     208 integration steps.
 Maximum DWI energy   std dev =  0.000173871 at pt    -1
 Maximum DWI gradient std dev =  1.081754588 at pt    25
 SUMMARY OF CORRECTOR INTEGRATION:
   Predictor End Point Energy =  -215.240385
   Old End Point Energy       =  -215.240385
   Corrected End Point Energy =  -215.240680
   Predictor End-Start Dist.  =     0.034126
   Old End-Start Dist.        =     0.034126
   New End-Start Dist.        =     0.032587
   New End-Old End Dist.      =     0.020673
 CORRECTOR INTEGRATION CONVERGENCE:
   Recorrection delta-x convergence threshold:    0.010000
   Delta-x Convergence NOT Met
 IRC-IRC-IRC-IRC-IRC-IRC-IRC-IRC-IRC-IRC-IRC-IRC-IRC-IRC-IRC-IRC-IRC-IRC
 Leave Link  123 at Wed Mar  6 22:35:53 2024, MaxMem=   104857600 cpu:               0.0 elap:               0.0
 (Enter /opt/g16/l202.exe)
                          Input orientation:                          
 ---------------------------------------------------------------------
 Center     Atomic      Atomic             Coordinates (Angstroms)
 Number     Number       Type             X           Y           Z
 ---------------------------------------------------------------------
      1          1           0       -1.248530   -0.762475   -0.684320
      2          1           0        0.336121    1.524767   -1.140757
      3          1           0        0.881860   -0.158163   -1.394998
      4          1           0        0.552051    0.447446    0.252700
      5          6           0        0.219041    0.491988   -0.824360
      6          9           0        0.792491   -0.496742    1.480741
      7          8           0       -1.138496    0.154651   -0.953353
 ---------------------------------------------------------------------
                    Distance matrix (angstroms):
                    1          2          3          4          5
     1  H    0.000000
     2  H    2.819740   0.000000
     3  H    2.325687   1.787379   0.000000
     4  H    2.363051   1.774534   1.786182   0.000000
     5  C    1.935730   1.086485   1.089795   1.128246   0.000000
     6  F    2.987285   3.341710   2.896981   1.567605   2.572921
     7  O    0.962085   2.021592   2.091588   2.097199   1.404757
                    6          7
     6  F    0.000000
     7  O    3.174561   0.000000
 Symmetry turned off by external request.
 Stoichiometry    CH4FO(2)
 Framework group  C1[X(CH4FO)]
 Deg. of freedom    15
 Full point group                 C1      NOp   1
 Rotational constants (GHZ):          29.4907051           5.0460915           4.4598254
 Leave Link  202 at Wed Mar  6 22:35:53 2024, MaxMem=   104857600 cpu:               0.0 elap:               0.0
 (Enter /opt/g16/l301.exe)
 Standard basis: STO-3G (5D, 7F)
 Ernie: Thresh=  0.10000D-02 Tol=  0.10000D-05 Strict=F.
    19 basis functions,    57 primitive gaussians,    19 cartesian basis functions
    14 alpha electrons       13 beta electrons
       nuclear repulsion energy        71.2483968806 Hartrees.
 IExCor=    0 DFT=F Ex=HF Corr=None ExCW=0 ScaHFX=  1.000000
 ScaDFX=  1.000000  1.000000  1.000000  1.000000 ScalE2=  1.000000  1.000000
 IRadAn=      5 IRanWt=     -1 IRanGd=            0 ICorTp=0 IEmpDi=  4
 NAtoms=    7 NActive=    7 NUniq=    7 SFac= 1.00D+00 NAtFMM=   60 NAOKFM=F Big=F
 Integral buffers will be    131072 words long.
 Raffenetti 2 integral format.
 Two-electron integral symmetry is turned off.
 Leave Link  301 at Wed Mar  6 22:35:53 2024, MaxMem=   104857600 cpu:               0.0 elap:               0.0
 (Enter /opt/g16/l402.exe)
 External calculation of energy and first derivatives.
 Running external command "python3 -u ../pes/h4cfo_pes.py R"
         input file       "/home/jh-li/scratch/g16/Gau-375485.EIn"
         output file      "/home/jh-li/scratch/g16/Gau-375485.EOu"
         message file     "/home/jh-li/scratch/g16/Gau-375485.EMs"
         fchk file        "/home/jh-li/scratch/g16/Gau-375485.EFC"
         mat. el file     "/home/jh-li/scratch/g16/Gau-375485.EUF"
 Recovered energy= -215.240791008     dipole=      0.000000000000      0.000000000000      0.000000000000
 NRF= 0 NRA=   0 NVA=   0 HaveQM=F NVQ=       0
 Convergence limit is  0.750E-04 MaxStp= 10000 StMxLn= 3.00D-04 StpMin= 1.00D-06.
 Convergence criteria             0.00011250 0.00007500 0.00045000 0.00030000
  Step  NS  ND Rises OKQ   Scale  Max. Force  RMS Force Max. Disp.  RMS Disp.     Energy   Flag
     1   0   0   F    T  1.00D+00 0.00000000 0.00000000 0.00000000 0.00000000 -215.2407910 ====
 Running external command "python3 -u ../pes/h4cfo_pes.py R"
         input file       "/home/jh-li/scratch/g16/Gau-375485.EIn"
         output file      "/home/jh-li/scratch/g16/Gau-375485.EOu"
         message file     "/home/jh-li/scratch/g16/Gau-375485.EMs"
         fchk file        "/home/jh-li/scratch/g16/Gau-375485.EFC"
         mat. el file     "/home/jh-li/scratch/g16/Gau-375485.EUF"
 Recovered energy= -215.240791008     dipole=      0.000000000000      0.000000000000      0.000000000000
 Energy=    -215.240791     NIter=   0.
 Dipole moment=       0.000000       0.000000       0.000000
 Leave Link  402 at Wed Mar  6 22:35:54 2024, MaxMem=   104857600 cpu:               0.0 elap:               0.4
 (Enter /opt/g16/l716.exe)
 Dipole        = 0.00000000D+00 0.00000000D+00 0.00000000D+00
 -------------------------------------------------------------------
 Center     Atomic                   Forces (Hartrees/Bohr)
 Number     Number              X              Y              Z
 -------------------------------------------------------------------
      1        1          -0.001031940    0.000349364   -0.000996989
      2        1          -0.000116783    0.001419411    0.001322839
      3        1           0.001520986   -0.001307223    0.001612449
      4        1           0.003504372   -0.007128584    0.020098479
      5        6          -0.012679876   -0.002161565   -0.016720609
      6        9          -0.001349362    0.006990208   -0.009421464
      7        8           0.010142914    0.001825840    0.004113774
 -------------------------------------------------------------------
 Cartesian Forces:  Max     0.020098479 RMS     0.007518996
 Leave Link  716 at Wed Mar  6 22:35:54 2024, MaxMem=   104857600 cpu:               0.0 elap:               0.0
 (Enter /opt/g16/l123.exe)
 IRC-IRC-IRC-IRC-IRC-IRC-IRC-IRC-IRC-IRC-IRC-IRC-IRC-IRC-IRC-IRC-IRC-IRC
 Error in corrector energy =           0.0001105651
 Magnitude of corrector gradient =     0.0297163711
 Magnitude of analytic gradient =      0.0344563681
 Magnitude of difference =             0.0257180560
 Angle between gradients (degrees)=   46.5290
 Pt100 Step number   2 out of a maximum of  10
 Using modified Bulirsch-Stoer corrector integration.
   Using distance weighted interpolants to fit PES.
 PreDWI: IReCr0= 2 IReCr1= 1 IReCr2= 1 IReCr3= 1
 Modified Bulirsch-Stoer Extrapolation Cycles:
    EPS =    0.000010000000000
    Cycle     1 NS=    48
      PEZero:  N= 2 I= 1 D=  1.78D-04 Err=  3.15D-04
    Cycle     2 NS=    64 Truncation Error =  0.000315373
      PEZero:  N= 3 I= 2 D=  1.78D-04 Err=  2.10D-04
      PEZero:  N= 3 I= 1 D=  3.55D-04 Err=  1.01D-06
    Cycle     3 NS=    96 Truncation Error =  0.000001006
 BS completed in    3 cycles and     208 integration steps.
 Maximum DWI energy   std dev =  0.000065620 at pt    76
 Maximum DWI gradient std dev =  0.801284974 at pt    61
 SUMMARY OF CORRECTOR INTEGRATION:
   Predictor End Point Energy =  -215.240385
   Old End Point Energy       =  -215.240791
   Corrected End Point Energy =  -215.240705
   Predictor End-Start Dist.  =     0.034126
   Old End-Start Dist.        =     0.032587
   New End-Start Dist.        =     0.029388
   New End-Old End Dist.      =     0.003957
 CORRECTOR INTEGRATION CONVERGENCE:
   Recorrection delta-x convergence threshold:    0.010000
   Delta-x Convergence Met
 Point Number:   2          Path Number:   2
                    CURRENT STRUCTURE
                Cartesian Coordinates (Ang):                
 ---------------------------------------------------------------------
 Center     Atomic                     Coordinates (Angstroms)
 Number     Number                        X           Y           Z
 ---------------------------------------------------------------------
      1          1                   -1.248432   -0.762466   -0.684182
      2          1                    0.336112    1.524591   -1.141110
      3          1                    0.881725   -0.158049   -1.395153
      4          1                    0.551801    0.448460    0.251023
      5          6                    0.219108    0.491968   -0.824261
      6          9                    0.792486   -0.496732    1.480734
      7          8                   -1.138535    0.154646   -0.953367
 ---------------------------------------------------------------------
   CHANGE IN THE REACTION COORDINATE =    0.02939
   NET REACTION COORDINATE UP TO THIS POINT =    0.03342
  # OF POINTS ALONG THE PATH = 100
  # OF STEPS =   2

 PES minimum detected on this side of the pathway.
    Step angle =   23.909
 Calculation of REVERSE path complete.
 Reaction path calculation complete.
 
 Energies reported relative to the TS energy of        -215.240290
 --------------------------------------------------------------------------
    Summary of reaction path following
 --------------------------------------------------------------------------
                        Energy    RxCoord
   1                   -0.00041  -0.03342
   2                   -0.00006  -0.00403
   3                    0.00000   0.00000
   4                   -0.00059   0.02951
   5                   -0.00130   0.06375
   6                   -0.00196   0.09801
   7                   -0.00261   0.13231
   8                   -0.00331   0.16661
   9                   -0.00406   0.20093
  10                   -0.00489   0.23524
  11                   -0.00581   0.26956
  12                   -0.00684   0.30388
  13                   -0.00799   0.33820
  14                   -0.00926   0.37251
  15                   -0.01065   0.40683
  16                   -0.01218   0.44115
  17                   -0.01383   0.47546
  18                   -0.01561   0.50978
  19                   -0.01750   0.54410
  20                   -0.01950   0.57842
  21                   -0.02160   0.61274
  22                   -0.02378   0.64705
  23                   -0.02603   0.68137
  24                   -0.02834   0.71569
  25                   -0.03069   0.75001
  26                   -0.03308   0.78433
  27                   -0.03547   0.81865
  28                   -0.03787   0.85297
  29                   -0.04024   0.88728
  30                   -0.04258   0.92160
  31                   -0.04486   0.95592
  32                   -0.04706   0.99024
  33                   -0.04915   1.02456
  34                   -0.05108   1.05888
  35                   -0.05283   1.09319
  36                   -0.05435   1.12751
  37                   -0.05559   1.16181
  38                   -0.05652   1.19605
  39                   -0.05715   1.23005
  40                   -0.05760   1.26395
  41                   -0.05797   1.29819
  42                   -0.05830   1.33249
  43                   -0.05861   1.36680
  44                   -0.05889   1.40111
  45                   -0.05914   1.43542
  46                   -0.05936   1.46972
  47                   -0.05957   1.50403
  48                   -0.05977   1.53833
  49                   -0.05994   1.57264
  50                   -0.06011   1.60695
  51                   -0.06026   1.64126
  52                   -0.06041   1.67557
  53                   -0.06055   1.70988
  54                   -0.06068   1.74419
  55                   -0.06080   1.77850
  56                   -0.06092   1.81282
  57                   -0.06103   1.84713
  58                   -0.06114   1.88145
  59                   -0.06124   1.91577
  60                   -0.06134   1.95008
  61                   -0.06144   1.98440
  62                   -0.06153   2.01872
  63                   -0.06161   2.05304
  64                   -0.06170   2.08736
  65                   -0.06177   2.12167
  66                   -0.06185   2.15599
  67                   -0.06192   2.19031
  68                   -0.06199   2.22463
  69                   -0.06206   2.25895
  70                   -0.06212   2.29327
  71                   -0.06219   2.32759
  72                   -0.06224   2.36190
  73                   -0.06230   2.39622
  74                   -0.06235   2.43054
  75                   -0.06240   2.46486
  76                   -0.06245   2.49918
  77                   -0.06250   2.53350
  78                   -0.06254   2.56782
  79                   -0.06258   2.60214
  80                   -0.06262   2.63646
  81                   -0.06266   2.67078
  82                   -0.06269   2.70510
  83                   -0.06272   2.73941
  84                   -0.06275   2.77373
  85                   -0.06278   2.80805
  86                   -0.06281   2.84237
  87                   -0.06283   2.87669
  88                   -0.06286   2.91101
  89                   -0.06288   2.94533
  90                   -0.06290   2.97965
  91                   -0.06291   3.01397
  92                   -0.06293   3.04828
  93                   -0.06294   3.08260
  94                   -0.06296   3.11692
  95                   -0.06297   3.15124
  96                   -0.06298   3.18556
  97                   -0.06299   3.21987
  98                   -0.06300   3.25419
  99                   -0.06300   3.28850
 100                   -0.06301   3.32280
 101                   -0.06301   3.35709
 --------------------------------------------------------------------------
 
 Total number of points:                  100
 Total number of gradient calculations:   104
 Total number of Hessian calculations:    101
 IRC-IRC-IRC-IRC-IRC-IRC-IRC-IRC-IRC-IRC-IRC-IRC-IRC-IRC-IRC-IRC-IRC-IRC
 Leave Link  123 at Wed Mar  6 22:35:54 2024, MaxMem=   104857600 cpu:               0.0 elap:               0.0
 (Enter /opt/g16/l202.exe)
                          Input orientation:                          
 ---------------------------------------------------------------------
 Center     Atomic      Atomic             Coordinates (Angstroms)
 Number     Number       Type             X           Y           Z
 ---------------------------------------------------------------------
      1          1           0       -1.248530   -0.762475   -0.684320
      2          1           0        0.336121    1.524767   -1.140757
      3          1           0        0.881860   -0.158163   -1.394998
      4          1           0        0.552051    0.447446    0.252700
      5          6           0        0.219041    0.491988   -0.824360
      6          9           0        0.792491   -0.496742    1.480741
      7          8           0       -1.138496    0.154651   -0.953353
 ---------------------------------------------------------------------
                    Distance matrix (angstroms):
                    1          2          3          4          5
     1  H    0.000000
     2  H    2.819740   0.000000
     3  H    2.325687   1.787379   0.000000
     4  H    2.363051   1.774534   1.786182   0.000000
     5  C    1.935730   1.086485   1.089795   1.128246   0.000000
     6  F    2.987285   3.341710   2.896981   1.567605   2.572921
     7  O    0.962085   2.021592   2.091588   2.097199   1.404757
                    6          7
     6  F    0.000000
     7  O    3.174561   0.000000
 Symmetry turned off by external request.
 Stoichiometry    CH4FO(2)
 Framework group  C1[X(CH4FO)]
 Deg. of freedom    15
 Full point group                 C1      NOp   1
 Rotational constants (GHZ):          29.4907051           5.0460915           4.4598254
 Leave Link  202 at Wed Mar  6 22:35:54 2024, MaxMem=   104857600 cpu:               0.0 elap:               0.0
 (Enter /opt/g16/l601.exe)
 Leave Link  601 at Wed Mar  6 22:35:54 2024, MaxMem=   104857600 cpu:               0.0 elap:               0.0
 (Enter /opt/g16/l9999.exe)

 This type of calculation cannot be archived.


 Where a calculator on the ENIAC is equipped with 18,000
 vacuum tubes and weighs 30 tons, computers inthe future
 may  have only 1,000 vacuum tubes and weigh only 1 1/2 tons.
              ---Popular Mechanics, March 1949
 Job cpu time:       0 days  0 hours  0 minutes 19.1 seconds.
 Elapsed time:       0 days  0 hours  1 minutes 55.9 seconds.
 File lengths (MBytes):  RWF=      6 Int=      0 D2E=      0 Chk=      2 Scr=      1
 Normal termination of Gaussian 16 at Wed Mar  6 22:35:54 2024.
