 Entering Gaussian System, Link 0=g16
 Initial command:
 /opt/g16/l1.exe "/home/jhli/scratch/g16/Gau-989797.inp" -scrdir="/home/jhli/scratch/g16/"
 Entering Link 1 = /opt/g16/l1.exe PID=    989806.
  
 Copyright (c) 1988-2019, Gaussian, Inc.  All Rights Reserved.
  
 This is part of the Gaussian(R) 16 program.  It is based on
 the Gaussian(R) 09 system (copyright 2009, Gaussian, Inc.),
 the Gaussian(R) 03 system (copyright 2003, Gaussian, Inc.),
 the Gaussian(R) 98 system (copyright 1998, Gaussian, Inc.),
 the Gaussian(R) 94 system (copyright 1995, Gaussian, Inc.),
 the Gaussian 92(TM) system (copyright 1992, Gaussian, Inc.),
 the Gaussian 90(TM) system (copyright 1990, Gaussian, Inc.),
 the Gaussian 88(TM) system (copyright 1988, Gaussian, Inc.),
 the Gaussian 86(TM) system (copyright 1986, Carnegie Mellon
 University), and the Gaussian 82(TM) system (copyright 1983,
 Carnegie Mellon University). Gaussian is a federally registered
 trademark of Gaussian, Inc.
  
 This software contains proprietary and confidential information,
 including trade secrets, belonging to Gaussian, Inc.
  
 This software is provided under written license and may be
 used, copied, transmitted, or stored only in accord with that
 written license.
  
 The following legend is applicable only to US Government
 contracts under FAR:
  
                    RESTRICTED RIGHTS LEGEND
  
 Use, reproduction and disclosure by the US Government is
 subject to restrictions as set forth in subparagraphs (a)
 and (c) of the Commercial Computer Software - Restricted
 Rights clause in FAR 52.227-19.
  
 Gaussian, Inc.
 340 Quinnipiac St., Bldg. 40, Wallingford CT 06492
  
  
 ---------------------------------------------------------------
 Warning -- This program may not be used in any manner that
 competes with the business of Gaussian, Inc. or will provide
 assistance to any competitor of Gaussian, Inc.  The licensee
 of this program is prohibited from giving any competitor of
 Gaussian, Inc. access to this program.  By using this program,
 the user acknowledges that Gaussian, Inc. is engaged in the
 business of creating and licensing software in the field of
 computational chemistry and represents and warrants to the
 licensee that it is not a competitor of Gaussian, Inc. and that
 it will not use this program in any manner prohibited above.
 ---------------------------------------------------------------
  

 Cite this work as:
 Gaussian 16, Revision C.01,
 M. J. Frisch, G. W. Trucks, H. B. Schlegel, G. E. Scuseria, 
 M. A. Robb, J. R. Cheeseman, G. Scalmani, V. Barone, 
 G. A. Petersson, H. Nakatsuji, X. Li, M. Caricato, A. V. Marenich, 
 J. Bloino, B. G. Janesko, R. Gomperts, B. Mennucci, H. P. Hratchian, 
 J. V. Ortiz, A. F. Izmaylov, J. L. Sonnenberg, D. Williams-Young, 
 F. Ding, F. Lipparini, F. Egidi, J. Goings, B. Peng, A. Petrone, 
 T. Henderson, D. Ranasinghe, V. G. Zakrzewski, J. Gao, N. Rega, 
 G. Zheng, W. Liang, M. Hada, M. Ehara, K. Toyota, R. Fukuda, 
 J. Hasegawa, M. Ishida, T. Nakajima, Y. Honda, O. Kitao, H. Nakai, 
 T. Vreven, K. Throssell, J. A. Montgomery, Jr., J. E. Peralta, 
 F. Ogliaro, M. J. Bearpark, J. J. Heyd, E. N. Brothers, K. N. Kudin, 
 V. N. Staroverov, T. A. Keith, R. Kobayashi, J. Normand, 
 K. Raghavachari, A. P. Rendell, J. C. Burant, S. S. Iyengar, 
 J. Tomasi, M. Cossi, J. M. Millam, M. Klene, C. Adamo, R. Cammi, 
 J. W. Ochterski, R. L. Martin, K. Morokuma, O. Farkas, 
 J. B. Foresman, and D. J. Fox, Gaussian, Inc., Wallingford CT, 2019.
 
 ******************************************
 Gaussian 16:  ES64L-G16RevC.01  3-Jul-2019
                 7-Jan-2025 
 ******************************************
 %nproc=1
 Will use up to    1 processors via shared memory.
 %oldchk=ts-opt-freq.chk
 Copying data from "ts-opt-freq.chk" to current chk file "/home/jhli/scratch/g16/Gau-989806.chk"
 IOpt=  2 FromEx=T IUOpen= 4 IOptOp= 5 NList=   0 IFRang= 0 IUIn= 4 IUOut= 2.
 ----------------------------------------------------------------------
 #p external="python3 -u ../pes/ch3cn_pes.py" irc=(calcall,stepsize=3,m
 axpoint=100) geom=allcheck
 ----------------------------------------------------------------------
 1/6=10,10=4,18=10,26=1,29=7,38=1,39=3,42=100,44=3,71=1,172=1/1,23;
 2/12=2,29=1,40=1/2;
 3/11=9,14=-4,25=1,30=1,41=9900000,43=2,71=2,140=1/1;
 4/20=17,22=1002,24=3,113=1,114=1/2;
 6/7=2,8=2,9=2,10=2,18=1/1;
 7/25=1,44=-1/16;
 1/6=10,10=4,18=10,26=1,39=3,42=100,44=3,71=1/23(2);
 2/29=1/2;
 99/5=20/99;
 2/29=1/2;
 3/11=9,14=-2,25=1,30=1,41=9900000,43=2,71=2,140=1/1;
 4/16=2,20=17,22=1002,24=3,113=1,114=1/2;
 7/25=1,44=-1/16;
 1/6=10,10=4,18=10,26=1,39=3,42=100,44=3,71=1/23(-4);
 2/29=1/2;
 6/7=2,8=2,9=2,10=2,18=1/1;
 99/5=20/99;
 Leave Link    1 at Tue Jan  7 19:27:20 2025, MaxMem=   104857600 cpu:               0.0 elap:               0.0
 (Enter /opt/g16/l101.exe)
 Structure from the checkpoint file:  "/home/jhli/scratch/g16/Gau-989806.chk"
 --
 ts
 --
 Charge =  0 Multiplicity = 1
 Redundant internal coordinates found in file.  (old form).
 H,0,-1.80311,0.831572,0.370392
 H,0,-1.707612,-0.765739,1.223675
 H,0,-1.353709,-0.649409,-0.525086
 C,0,-1.32506,-0.137841,0.429224
 C,0,0.188972,0.375534,1.222122
 N,0,0.500713,-0.152279,0.195151
 Recover connectivity data from disk.
 ITRead=  0  0  0  0  0  0
 MicOpt= -1 -1 -1 -1 -1 -1
 NAtoms=      6 NQM=        6 NQMF=       0 NMMI=      0 NMMIF=      0
                NMic=       0 NMicF=      0.
                    Isotopes and Nuclear Properties:
 (Nuclear quadrupole moments (NQMom) in fm**2, nuclear magnetic moments (NMagM)
  in nuclear magnetons)

  Atom         1           2           3           4           5           6
 IAtWgt=           1           1           1          12          12          14
 AtmWgt=   1.0078250   1.0078250   1.0078250  12.0000000  12.0000000  14.0030740
 NucSpn=           1           1           1           0           0           2
 AtZEff=   1.0000000   1.0000000   1.0000000   3.6000000   3.6000000   4.5500000
 NQMom=    0.0000000   0.0000000   0.0000000   0.0000000   0.0000000   2.0440000
 NMagM=    2.7928460   2.7928460   2.7928460   0.0000000   0.0000000   0.4037610
 AtZNuc=   1.0000000   1.0000000   1.0000000   6.0000000   6.0000000   7.0000000
 Leave Link  101 at Tue Jan  7 19:27:20 2025, MaxMem=   104857600 cpu:               0.1 elap:               0.1
 (Enter /opt/g16/l123.exe)
 IRC-IRC-IRC-IRC-IRC-IRC-IRC-IRC-IRC-IRC-IRC-IRC-IRC-IRC-IRC-IRC-IRC-IRC
 ------------------------------------------------------------------------
 INPUT DATA FOR L123
 ------------------------------------------------------------------------
 GENERAL PARAMETERS:
 Follow reaction path in both directions.
 Maximum points per path      = 100
 Step size                    =   0.030 bohr
 Integration scheme           = HPC                                 
    Redo corrector integration= Yes                                 
    DWI Weight Power          =  2
    DWI will use Hessian update vectors when possible.
    Max correction cycles     =  10
 Initial Hessian              = CalcFC
 Hessian evaluation           = Analytic at all predictor steps
                              = Update at all corrector steps
 Hessian updating method      = Bofill                              
 ------------------------------------------------------------------------
 IRC-IRC-IRC-IRC-IRC-IRC-IRC-IRC-IRC-IRC-IRC-IRC-IRC-IRC-IRC-IRC-IRC-IRC
 Leave Link  123 at Tue Jan  7 19:27:20 2025, MaxMem=   104857600 cpu:               0.0 elap:               0.0
 (Enter /opt/g16/l202.exe)
                          Input orientation:                          
 ---------------------------------------------------------------------
 Center     Atomic      Atomic             Coordinates (Angstroms)
 Number     Number       Type             X           Y           Z
 ---------------------------------------------------------------------
      1          1           0       -1.803110    0.831572    0.370392
      2          1           0       -1.707612   -0.765739    1.223675
      3          1           0       -1.353709   -0.649409   -0.525086
      4          6           0       -1.325060   -0.137841    0.429224
      5          6           0        0.188972    0.375534    1.222122
      6          7           0        0.500713   -0.152279    0.195151
 ---------------------------------------------------------------------
                    Distance matrix (angstroms):
                    1          2          3          4          5
     1  H    0.000000
     2  H    1.813454   0.000000
     3  H    1.788057   1.788000   0.000000
     4  C    1.082476   1.082476   1.083157   0.000000
     5  C    2.214002   2.213490   2.546195   1.784526   0.000000
     6  N    2.511229   2.512149   2.050551   1.840773   1.196009
                    6
     6  N    0.000000
 Symmetry turned off by external request.
 Stoichiometry    C2H3N
 Framework group  C1[X(C2H3N)]
 Deg. of freedom    12
 Full point group                 C1      NOp   1
 Rotational constants (GHZ):          40.7161981          15.7817824          12.2900995
 Leave Link  202 at Tue Jan  7 19:27:20 2025, MaxMem=   104857600 cpu:               0.0 elap:               0.0
 (Enter /opt/g16/l301.exe)
 Standard basis: STO-3G (5D, 7F)
 Ernie: Thresh=  0.10000D-02 Tol=  0.10000D-05 Strict=F.
    18 basis functions,    54 primitive gaussians,    18 cartesian basis functions
    11 alpha electrons       11 beta electrons
       nuclear repulsion energy        59.8851490892 Hartrees.
 IExCor=    0 DFT=F Ex=HF Corr=None ExCW=0 ScaHFX=  1.000000
 ScaDFX=  1.000000  1.000000  1.000000  1.000000 ScalE2=  1.000000  1.000000
 IRadAn=      5 IRanWt=     -1 IRanGd=            0 ICorTp=0 IEmpDi=  4
 NAtoms=    6 NActive=    6 NUniq=    6 SFac= 1.00D+00 NAtFMM=   60 NAOKFM=F Big=F
 Integral buffers will be    131072 words long.
 Raffenetti 1 integral format.
 Two-electron integral symmetry is turned off.
 Leave Link  301 at Tue Jan  7 19:27:20 2025, MaxMem=   104857600 cpu:               0.0 elap:               0.0
 (Enter /opt/g16/l402.exe)
 External calculation of energy, first and second derivatives.
 Running external command "python3 -u ../pes/ch3cn_pes.py R"
         input file       "/home/jhli/scratch/g16/Gau-989806.EIn"
         output file      "/home/jhli/scratch/g16/Gau-989806.EOu"
         message file     "/home/jhli/scratch/g16/Gau-989806.EMs"
         fchk file        "/home/jhli/scratch/g16/Gau-989806.EFC"
         mat. el file     "/home/jhli/scratch/g16/Gau-989806.EUF"
 Recovered energy= -132.478693758     dipole=      0.000000000000      0.000000000000      0.000000000000
 NRF= 0 NRA=   0 NVA=   0 HaveQM=F NVQ=       0
 Convergence limit is  0.750E-04 MaxStp= 10000 StMxLn= 3.00D-04 StpMin= 1.00D-06.
 Convergence criteria             0.00011250 0.00007500 0.00045000 0.00030000
  Step  NS  ND Rises OKQ   Scale  Max. Force  RMS Force Max. Disp.  RMS Disp.     Energy   Flag
     1   0   0   F    T  1.00D+00 0.00000000 0.00000000 0.00000000 0.00000000 -132.4786938 ====
 Running external command "python3 -u ../pes/ch3cn_pes.py R"
         input file       "/home/jhli/scratch/g16/Gau-989806.EIn"
         output file      "/home/jhli/scratch/g16/Gau-989806.EOu"
         message file     "/home/jhli/scratch/g16/Gau-989806.EMs"
         fchk file        "/home/jhli/scratch/g16/Gau-989806.EFC"
         mat. el file     "/home/jhli/scratch/g16/Gau-989806.EUF"
 Recovered energy= -132.478693758     dipole=      0.000000000000      0.000000000000      0.000000000000
 Energy=    -132.478694     NIter=   0.
 Dipole moment=       0.000000       0.000000       0.000000
 Leave Link  402 at Tue Jan  7 19:27:20 2025, MaxMem=   104857600 cpu:               0.0 elap:               0.2
 (Enter /opt/g16/l601.exe)
 Leave Link  601 at Tue Jan  7 19:27:20 2025, MaxMem=   104857600 cpu:               0.0 elap:               0.0
 (Enter /opt/g16/l716.exe)
 Dipole        = 0.00000000D+00 0.00000000D+00 0.00000000D+00
 -------------------------------------------------------------------
 Center     Atomic                   Forces (Hartrees/Bohr)
 Number     Number              X              Y              Z
 -------------------------------------------------------------------
      1        1          -0.000006584    0.000011264    0.000030921
      2        1           0.000003796    0.000025914    0.000013465
      3        1          -0.000021468    0.000028850    0.000013537
      4        6           0.000017999   -0.000063457   -0.000058946
      5        6           0.000064482   -0.000117863   -0.000114934
      6        7          -0.000054844    0.000112847    0.000116168
 -------------------------------------------------------------------
 Cartesian Forces:  Max     0.000117863 RMS     0.000063154
 Force constants in Cartesian coordinates: 
                1             2             3             4             5 
      1  0.102637D+00
      2 -0.121013D+00  0.303276D+00
      3  0.730562D-02 -0.134600D-01  0.485133D-01
      4  0.744441D-02  0.618641D-02 -0.106411D-01  0.813124D-01
      5 -0.969982D-02 -0.100114D-01  0.195673D-01  0.618626D-01  0.152190D+00
      6 -0.688588D-03 -0.485190D-02  0.569415D-03 -0.783138D-01 -0.134375D+00
      7  0.297411D-02  0.509804D-02  0.112741D-01  0.274983D-02  0.527725D-02
      8 -0.659680D-03 -0.111358D-01 -0.260391D-01  0.164101D-02  0.100631D-01
      9  0.127703D-02  0.310350D-02  0.321522D-02  0.311209D-03 -0.125902D-01
     10 -0.933538D-01  0.116333D+00  0.351427D-02 -0.737430D-01 -0.496885D-01
     11  0.119793D+00 -0.290020D+00  0.174999D-01 -0.509812D-01 -0.151808D+00
     12  0.417367D-02  0.195668D-01 -0.501587D-01  0.845315D-01  0.128339D+00
     13 -0.223951D-01 -0.814175D-02 -0.105534D-01 -0.215075D-01 -0.617241D-02
     14  0.292655D-02  0.512500D-02  0.495643D-02 -0.144022D-01 -0.135181D-02
     15 -0.127045D-01 -0.393799D-03  0.129326D-02 -0.344564D-02  0.166470D-02
     16  0.269673D-02  0.153292D-02 -0.899764D-03  0.374616D-02 -0.157658D-02
     17  0.866021D-02  0.277137D-02 -0.252117D-02 -0.430534D-02  0.926808D-03
     18  0.636465D-03 -0.397271D-02 -0.342917D-02  0.756046D-02 -0.260074D-02
                6             7             8             9            10 
      6  0.220661D+00
      7  0.788785D-02  0.467919D-01
      8  0.176047D-01  0.207121D-02  0.114473D+00
      9 -0.177713D-01  0.380255D-02  0.128131D+00  0.285390D+00
     10  0.810475D-01 -0.273191D-01 -0.698296D-03 -0.383842D-02  0.274175D+00
     11  0.130172D+00 -0.564245D-02 -0.112697D+00 -0.117972D+00 -0.523372D-01
     12 -0.207680D+00 -0.131196D-01 -0.118546D+00 -0.269815D+00 -0.604312D-01
     13 -0.109160D-01  0.995572D-02 -0.131059D-02 -0.373343D-02 -0.535260D-01
     14 -0.402968D-02  0.619866D-03  0.940171D-03  0.413368D-02 -0.129485D-01
     15  0.680408D-02 -0.567450D-04  0.438031D-02  0.688530D-02 -0.199859D-01
     16  0.979083D-03 -0.351496D-01 -0.104124D-02  0.218619D-02 -0.262553D-01
     17 -0.451952D-02 -0.742762D-02 -0.163905D-02 -0.480459D-02 -0.662693D-03
     18 -0.257629D-02 -0.979537D-02 -0.553626D-02 -0.790230D-02 -0.308877D-03
               11            12            13            14            15 
     11  0.579779D+00
     12 -0.454881D-01  0.528647D+00
     13  0.109298D-01  0.249212D-01  0.123258D+00
     14 -0.100485D-01  0.107340D-01 -0.114146D+00  0.182284D+00
     15  0.798243D-02  0.247061D-02 -0.227571D+00  0.337857D+00  0.670138D+00
     16 -0.217637D-01 -0.400761D-01 -0.357807D-01  0.137949D+00  0.263763D+00
     17 -0.152294D-01  0.538725D-02  0.118836D+00 -0.176946D+00 -0.351486D+00
     18  0.782066D-02 -0.347296D-02  0.227837D+00 -0.353660D+00 -0.687592D+00
               16            17            18 
     16  0.907527D-01
     17 -0.115099D+00  0.190117D+00
     18 -0.225928D+00  0.357946D+00  0.704969D+00
 Leave Link  716 at Tue Jan  7 19:27:20 2025, MaxMem=   104857600 cpu:               0.0 elap:               0.0
 (Enter /opt/g16/l123.exe)
 IRC-IRC-IRC-IRC-IRC-IRC-IRC-IRC-IRC-IRC-IRC-IRC-IRC-IRC-IRC-IRC-IRC-IRC
          ******** Start new reaction path calculation ********
 Current Structure is TS -> form Hessian eigenvectors.
                            Diagonalizing Hessian.
 Supplied step size of   0.0300 bohr.
    Integration on MW PES will use step size of   0.0819 sqrt(amu)*bohr.
 Point Number:   0          Path Number:   1
 Calculating another point on the path.
 Point Number  1 in FORWARD path direction.
 Using LQA Reaction Path Following.
 IRC-IRC-IRC-IRC-IRC-IRC-IRC-IRC-IRC-IRC-IRC-IRC-IRC-IRC-IRC-IRC-IRC-IRC
 Leave Link  123 at Tue Jan  7 19:27:20 2025, MaxMem=   104857600 cpu:               0.0 elap:               0.0
 (Enter /opt/g16/l202.exe)
                          Input orientation:                          
 ---------------------------------------------------------------------
 Center     Atomic      Atomic             Coordinates (Angstroms)
 Number     Number       Type             X           Y           Z
 ---------------------------------------------------------------------
      1          1           0       -1.516779    0.827990   -0.207223
      2          1           0       -1.421246   -0.769626    0.646287
      3          1           0       -1.078282   -0.654938   -1.104623
      4          6           0       -1.042070   -0.143136   -0.150804
      5          6           0        0.475847    0.374807    0.650253
      6          7           0        0.774288   -0.155596   -0.380103
 ---------------------------------------------------------------------
                    Distance matrix (angstroms):
                    1          2          3          4          5
     1  H    0.000000
     2  H    1.813831   0.000000
     3  H    1.787927   1.787866   0.000000
     4  C    1.082412   1.082414   1.083062   0.000000
     5  C    2.216122   2.215559   2.560328   1.792771   0.000000
     6  N    2.499264   2.500176   2.050924   1.830817   1.196674
                    6
     6  N    0.000000
 Symmetry turned off by external request.
 Stoichiometry    C2H3N
 Framework group  C1[X(C2H3N)]
 Deg. of freedom    12
 Full point group                 C1      NOp   1
 Rotational constants (GHZ):          40.5787863          15.8288226          12.3064140
 Leave Link  202 at Tue Jan  7 19:27:20 2025, MaxMem=   104857600 cpu:               0.0 elap:               0.0
 (Enter /opt/g16/l301.exe)
 Standard basis: STO-3G (5D, 7F)
 Ernie: Thresh=  0.10000D-02 Tol=  0.10000D-05 Strict=F.
    18 basis functions,    54 primitive gaussians,    18 cartesian basis functions
    11 alpha electrons       11 beta electrons
       nuclear repulsion energy        59.8961841501 Hartrees.
 IExCor=    0 DFT=F Ex=HF Corr=None ExCW=0 ScaHFX=  1.000000
 ScaDFX=  1.000000  1.000000  1.000000  1.000000 ScalE2=  1.000000  1.000000
 IRadAn=      5 IRanWt=     -1 IRanGd=            0 ICorTp=0 IEmpDi=  4
 NAtoms=    6 NActive=    6 NUniq=    6 SFac= 1.00D+00 NAtFMM=   60 NAOKFM=F Big=F
 Integral buffers will be    131072 words long.
 Raffenetti 1 integral format.
 Two-electron integral symmetry is turned off.
 Leave Link  301 at Tue Jan  7 19:27:20 2025, MaxMem=   104857600 cpu:               0.0 elap:               0.0
 (Enter /opt/g16/l402.exe)
 External calculation of energy, first and second derivatives.
 Running external command "python3 -u ../pes/ch3cn_pes.py R"
         input file       "/home/jhli/scratch/g16/Gau-989806.EIn"
         output file      "/home/jhli/scratch/g16/Gau-989806.EOu"
         message file     "/home/jhli/scratch/g16/Gau-989806.EMs"
         fchk file        "/home/jhli/scratch/g16/Gau-989806.EFC"
         mat. el file     "/home/jhli/scratch/g16/Gau-989806.EUF"
 Recovered energy= -132.478718259     dipole=      0.000000000000      0.000000000000      0.000000000000
 NRF= 0 NRA=   0 NVA=   0 HaveQM=F NVQ=       0
 Convergence limit is  0.750E-04 MaxStp= 10000 StMxLn= 3.00D-04 StpMin= 1.00D-06.
 Convergence criteria             0.00011250 0.00007500 0.00045000 0.00030000
  Step  NS  ND Rises OKQ   Scale  Max. Force  RMS Force Max. Disp.  RMS Disp.     Energy   Flag
     1   0   0   F    T  1.00D+00 0.00000000 0.00000000 0.00000000 0.00000000 -132.4787183 ====
 Running external command "python3 -u ../pes/ch3cn_pes.py R"
         input file       "/home/jhli/scratch/g16/Gau-989806.EIn"
         output file      "/home/jhli/scratch/g16/Gau-989806.EOu"
         message file     "/home/jhli/scratch/g16/Gau-989806.EMs"
         fchk file        "/home/jhli/scratch/g16/Gau-989806.EFC"
         mat. el file     "/home/jhli/scratch/g16/Gau-989806.EUF"
 Recovered energy= -132.478718259     dipole=      0.000000000000      0.000000000000      0.000000000000
 Energy=    -132.478718     NIter=   0.
 Dipole moment=       0.000000       0.000000       0.000000
 Leave Link  402 at Tue Jan  7 19:27:20 2025, MaxMem=   104857600 cpu:               0.0 elap:               0.2
 (Enter /opt/g16/l716.exe)
 Dipole        = 0.00000000D+00 0.00000000D+00 0.00000000D+00
 -------------------------------------------------------------------
 Center     Atomic                   Forces (Hartrees/Bohr)
 Number     Number              X              Y              Z
 -------------------------------------------------------------------
      1        1           0.000064561   -0.000003643    0.000007571
      2        1           0.000074772    0.000022166   -0.000015362
      3        1          -0.000113242    0.000003179   -0.000023513
      4        6           0.000367092   -0.000421919   -0.000771924
      5        6           0.001121908    0.000223171    0.000408011
      6        7          -0.001511534    0.000174416    0.000395917
 -------------------------------------------------------------------
 Cartesian Forces:  Max     0.001511534 RMS     0.000520654
 Force constants in Cartesian coordinates: 
                1             2             3             4             5 
      1  0.101917D+00
      2 -0.120173D+00  0.304317D+00
      3  0.700599D-02 -0.129933D-01  0.486722D-01
      4  0.725609D-02  0.600120D-02 -0.106360D-01  0.807860D-01
      5 -0.958495D-02 -0.101162D-01  0.198715D-01  0.610778D-01  0.152036D+00
      6 -0.834753D-03 -0.469135D-02  0.783747D-03 -0.776768D-01 -0.134509D+00
      7  0.298860D-02  0.506954D-02  0.112701D-01  0.273131D-02  0.528334D-02
      8 -0.874698D-03 -0.111720D-01 -0.260630D-01  0.193227D-02  0.101796D-01
      9  0.149966D-02  0.297567D-02  0.325651D-02  0.246919D-03 -0.125392D-01
     10 -0.926541D-01  0.115777D+00  0.361605D-02 -0.732113D-01 -0.492323D-01
     11  0.118659D+00 -0.291015D+00  0.169396D-01 -0.503266D-01 -0.151695D+00
     12  0.412701D-02  0.189723D-01 -0.504848D-01  0.834648D-01  0.128327D+00
     13 -0.219390D-01 -0.780428D-02 -0.105515D-01 -0.210519D-01 -0.632442D-02
     14  0.309383D-02  0.486504D-02  0.473791D-02 -0.137632D-01 -0.124100D-02
     15 -0.118732D-01 -0.452853D-03  0.132537D-02 -0.288417D-02  0.172902D-02
     16  0.243459D-02  0.112643D-02 -0.705089D-03  0.349189D-02 -0.121737D-02
     17  0.888757D-02  0.312599D-02 -0.248935D-02 -0.492032D-02  0.846524D-03
     18  0.747784D-04 -0.381832D-02 -0.354963D-02  0.748790D-02 -0.287469D-02
                6             7             8             9            10 
      6  0.221818D+00
      7  0.786226D-02  0.466545D-01
      8  0.175412D-01  0.317735D-02  0.114594D+00
      9 -0.178507D-01  0.587352D-02  0.128486D+00  0.285661D+00
     10  0.805442D-01 -0.269044D-01 -0.181016D-02 -0.596054D-02  0.272600D+00
     11  0.130166D+00 -0.689140D-02 -0.112844D+00 -0.118281D+00 -0.509346D-01
     12 -0.208941D+00 -0.154950D-01 -0.118870D+00 -0.270036D+00 -0.575198D-01
     13 -0.106875D-01  0.103548D-01 -0.126859D-02 -0.372433D-02 -0.523275D-01
     14 -0.387361D-02  0.925732D-03  0.648302D-03  0.398011D-02 -0.131498D-01
     15  0.646270D-02  0.446378D-03  0.425538D-02  0.636651D-02 -0.203662D-01
     16  0.788823D-03 -0.358229D-01 -0.115344D-02  0.207055D-02 -0.275242D-01
     17 -0.463287D-02 -0.756830D-02 -0.140150D-02 -0.461968D-02 -0.651696D-03
     18 -0.226572D-02 -0.996426D-02 -0.535445D-02 -0.739471D-02 -0.316720D-03
               11            12            13            14            15 
     11  0.581108D+00
     12 -0.446487D-01  0.530688D+00
     13  0.109781D-01  0.250067D-01  0.115204D+00
     14 -0.918178D-02  0.100967D-01 -0.109177D+00  0.183189D+00
     15  0.732149D-02  0.248577D-02 -0.217450D+00  0.341135D+00  0.674029D+00
     16 -0.214868D-01 -0.395857D-01 -0.302361D-01  0.132070D+00  0.252126D+00
     17 -0.163962D-01  0.611595D-02  0.113591D+00 -0.178276D+00 -0.353983D+00
     18  0.851769D-02 -0.372068D-02  0.217391D+00 -0.356084D+00 -0.690671D+00
               16            17            18 
     16  0.876664D-01
     17 -0.109337D+00  0.192102D+00
     18 -0.214671D+00  0.359611D+00  0.707599D+00
 Leave Link  716 at Tue Jan  7 19:27:20 2025, MaxMem=   104857600 cpu:               0.0 elap:               0.0
 (Enter /opt/g16/l123.exe)
 IRC-IRC-IRC-IRC-IRC-IRC-IRC-IRC-IRC-IRC-IRC-IRC-IRC-IRC-IRC-IRC-IRC-IRC
 Pt  1 Step number   1 out of a maximum of  10
 Using modified Bulirsch-Stoer corrector integration.
   Using distance weighted interpolants to fit PES.
 PreDWI: IReCr0= 2 IReCr1= 1 IReCr2= 1 IReCr3= 1
 Modified Bulirsch-Stoer Extrapolation Cycles:
    EPS =    0.000010000000000
    Cycle     1 NS=    48
      PEZero:  N= 2 I= 1 D=  2.13D-04 Err=  4.13D-04
    Cycle     2 NS=    64 Truncation Error =  0.000412706
      PEZero:  N= 3 I= 2 D=  2.13D-04 Err=  2.74D-04
      PEZero:  N= 3 I= 1 D=  4.27D-04 Err=  1.22D-06
    Cycle     3 NS=    96 Truncation Error =  0.000001217
 BS completed in    3 cycles and     208 integration steps.
 Maximum DWI energy   std dev =  0.000000596 at pt     1
 Maximum DWI gradient std dev =  0.069947874 at pt     1
 SUMMARY OF CORRECTOR INTEGRATION:
   Predictor End Point Energy =  -132.478718
   Old End Point Energy       =  -132.478718
   Corrected End Point Energy =  -132.478718
   Predictor End-Start Dist.  =     0.081900
   Old End-Start Dist.        =     0.081900
   New End-Start Dist.        =     0.081813
   New End-Old End Dist.      =     0.002610
 CORRECTOR INTEGRATION CONVERGENCE:
   Recorrection delta-x convergence threshold:    0.010000
   Delta-x Convergence Met
 Point Number:   1          Path Number:   1
                    CURRENT STRUCTURE
                Cartesian Coordinates (Ang):                
 ---------------------------------------------------------------------
 Center     Atomic                     Coordinates (Angstroms)
 Number     Number                        X           Y           Z
 ---------------------------------------------------------------------
      1          1                   -1.516794    0.828051   -0.206690
      2          1                   -1.421223   -0.769486    0.646419
      3          1                   -1.078793   -0.654643   -1.104668
      4          6                   -1.042110   -0.143138   -0.150796
      5          6                    0.475936    0.374565    0.650234
      6          7                    0.774292   -0.155430   -0.380137
 ---------------------------------------------------------------------
   CHANGE IN THE REACTION COORDINATE =    0.08181
   NET REACTION COORDINATE UP TO THIS POINT =    0.08181
  # OF POINTS ALONG THE PATH =   1
  # OF STEPS =   1

 Calculating another point on the path.
 Point Number  2 in FORWARD path direction.
 Using LQA Reaction Path Following.
   LQA: T_Est iteration completed in    3 iterations.
 IRC-IRC-IRC-IRC-IRC-IRC-IRC-IRC-IRC-IRC-IRC-IRC-IRC-IRC-IRC-IRC-IRC-IRC
 Leave Link  123 at Tue Jan  7 19:27:20 2025, MaxMem=   104857600 cpu:               0.0 elap:               0.0
 (Enter /opt/g16/l202.exe)
                          Input orientation:                          
 ---------------------------------------------------------------------
 Center     Atomic      Atomic             Coordinates (Angstroms)
 Number     Number       Type             X           Y           Z
 ---------------------------------------------------------------------
      1          1           0       -1.511504    0.827687   -0.207859
      2          1           0       -1.415780   -0.770368    0.644764
      3          1           0       -1.084706   -0.656532   -1.108428
      4          6           0       -1.040085   -0.145193   -0.154907
      5          6           0        0.482067    0.376798    0.654229
      6          7           0        0.766969   -0.155366   -0.379561
 ---------------------------------------------------------------------
                    Distance matrix (angstroms):
                    1          2          3          4          5
     1  H    0.000000
     2  H    1.813810   0.000000
     3  H    1.787760   1.787806   0.000000
     4  C    1.082375   1.082342   1.082895   0.000000
     5  C    2.218293   2.217634   2.574783   1.801145   0.000000
     6  N    2.487431   2.488345   2.052100   1.820993   1.197117
                    6
     6  N    0.000000
 Symmetry turned off by external request.
 Stoichiometry    C2H3N
 Framework group  C1[X(C2H3N)]
 Deg. of freedom    12
 Full point group                 C1      NOp   1
 Rotational constants (GHZ):          40.4782963          15.8683921          12.3210013
 Leave Link  202 at Tue Jan  7 19:27:20 2025, MaxMem=   104857600 cpu:               0.0 elap:               0.0
 (Enter /opt/g16/l301.exe)
 Standard basis: STO-3G (5D, 7F)
 Ernie: Thresh=  0.10000D-02 Tol=  0.10000D-05 Strict=F.
    18 basis functions,    54 primitive gaussians,    18 cartesian basis functions
    11 alpha electrons       11 beta electrons
       nuclear repulsion energy        59.9095344838 Hartrees.
 IExCor=    0 DFT=F Ex=HF Corr=None ExCW=0 ScaHFX=  1.000000
 ScaDFX=  1.000000  1.000000  1.000000  1.000000 ScalE2=  1.000000  1.000000
 IRadAn=      5 IRanWt=     -1 IRanGd=            0 ICorTp=0 IEmpDi=  4
 NAtoms=    6 NActive=    6 NUniq=    6 SFac= 1.00D+00 NAtFMM=   60 NAOKFM=F Big=F
 Integral buffers will be    131072 words long.
 Raffenetti 1 integral format.
 Two-electron integral symmetry is turned off.
 Leave Link  301 at Tue Jan  7 19:27:20 2025, MaxMem=   104857600 cpu:               0.0 elap:               0.0
 (Enter /opt/g16/l402.exe)
 External calculation of energy, first and second derivatives.
 Running external command "python3 -u ../pes/ch3cn_pes.py R"
         input file       "/home/jhli/scratch/g16/Gau-989806.EIn"
         output file      "/home/jhli/scratch/g16/Gau-989806.EOu"
         message file     "/home/jhli/scratch/g16/Gau-989806.EMs"
         fchk file        "/home/jhli/scratch/g16/Gau-989806.EFC"
         mat. el file     "/home/jhli/scratch/g16/Gau-989806.EUF"
 Recovered energy= -132.478791097     dipole=      0.000000000000      0.000000000000      0.000000000000
 NRF= 0 NRA=   0 NVA=   0 HaveQM=F NVQ=       0
 Convergence limit is  0.750E-04 MaxStp= 10000 StMxLn= 3.00D-04 StpMin= 1.00D-06.
 Convergence criteria             0.00011250 0.00007500 0.00045000 0.00030000
  Step  NS  ND Rises OKQ   Scale  Max. Force  RMS Force Max. Disp.  RMS Disp.     Energy   Flag
     1   0   0   F    T  1.00D+00 0.00000000 0.00000000 0.00000000 0.00000000 -132.4787911 ====
 Running external command "python3 -u ../pes/ch3cn_pes.py R"
         input file       "/home/jhli/scratch/g16/Gau-989806.EIn"
         output file      "/home/jhli/scratch/g16/Gau-989806.EOu"
         message file     "/home/jhli/scratch/g16/Gau-989806.EMs"
         fchk file        "/home/jhli/scratch/g16/Gau-989806.EFC"
         mat. el file     "/home/jhli/scratch/g16/Gau-989806.EUF"
 Recovered energy= -132.478791097     dipole=      0.000000000000      0.000000000000      0.000000000000
 Energy=    -132.478791     NIter=   0.
 Dipole moment=       0.000000       0.000000       0.000000
 Leave Link  402 at Tue Jan  7 19:27:20 2025, MaxMem=   104857600 cpu:               0.0 elap:               0.2
 (Enter /opt/g16/l716.exe)
 Dipole        = 0.00000000D+00 0.00000000D+00 0.00000000D+00
 -------------------------------------------------------------------
 Center     Atomic                   Forces (Hartrees/Bohr)
 Number     Number              X              Y              Z
 -------------------------------------------------------------------
      1        1           0.000140820   -0.000021773   -0.000036684
      2        1           0.000143105   -0.000017985   -0.000052816
      3        1          -0.000175932   -0.000047192   -0.000085532
      4        6           0.000667519   -0.000688579   -0.001380324
      5        6           0.002070396    0.000679200    0.001160082
      6        7          -0.002842223    0.000093501    0.000396452
 -------------------------------------------------------------------
 Cartesian Forces:  Max     0.002842223 RMS     0.000978904
 Force constants in Cartesian coordinates: 
                1             2             3             4             5 
      1  0.101221D+00
      2 -0.119312D+00  0.305325D+00
      3  0.660296D-02 -0.122451D-01  0.488080D-01
      4  0.706465D-02  0.583596D-02 -0.106233D-01  0.802604D-01
      5 -0.946879D-02 -0.102451D-01  0.201868D-01  0.603119D-01  0.151926D+00
      6 -0.972682D-03 -0.453139D-02  0.101087D-02 -0.769940D-01 -0.134668D+00
      7  0.301485D-02  0.505149D-02  0.112530D-01  0.272367D-02  0.526200D-02
      8 -0.111074D-02 -0.111841D-01 -0.260929D-01  0.222424D-02  0.102874D-01
      9  0.170321D-02  0.285257D-02  0.327900D-02  0.157036D-03 -0.124821D-01
     10 -0.919348D-01  0.115158D+00  0.379101D-02 -0.726383D-01 -0.487973D-01
     11  0.117501D+00 -0.291966D+00  0.160678D-01 -0.497075D-01 -0.151614D+00
     12  0.416650D-02  0.180936D-01 -0.508152D-01  0.823566D-01  0.128286D+00
     13 -0.214772D-01 -0.748790D-02 -0.105069D-01 -0.205929D-01 -0.641882D-02
     14  0.328258D-02  0.461313D-02  0.451894D-02 -0.131272D-01 -0.112780D-02
     15 -0.110312D-01 -0.490947D-03  0.136597D-02 -0.231128D-02  0.177782D-02
     16  0.211409D-02  0.751717D-03 -0.517607D-03  0.318455D-02 -0.887331D-03
     17  0.911570D-02  0.346177D-02 -0.243222D-02 -0.553627D-02  0.782718D-03
     18 -0.469413D-03 -0.368624D-02 -0.364510D-02  0.741756D-02 -0.309566D-02
                6             7             8             9            10 
      6  0.222950D+00
      7  0.784078D-02  0.465912D-01
      8  0.174967D-01  0.437956D-02  0.114555D+00
      9 -0.179049D-01  0.812432D-02  0.128778D+00  0.286163D+00
     10  0.799562D-01 -0.265577D-01 -0.300595D-02 -0.823638D-02  0.271172D+00
     11  0.130157D+00 -0.819952D-02 -0.112857D+00 -0.118555D+00 -0.493428D-01
     12 -0.210213D+00 -0.179995D-01 -0.119157D+00 -0.270527D+00 -0.543926D-01
     13 -0.104566D-01  0.107263D-01 -0.122470D-02 -0.371902D-02 -0.512924D-01
     14 -0.371011D-02  0.121025D-02  0.352079D-03  0.381359D-02 -0.133496D-01
     15  0.613712D-02  0.912133D-03  0.411470D-02  0.584442D-02 -0.207528D-01
     16  0.622649D-03 -0.364973D-01 -0.125939D-02  0.197722D-02 -0.287689D-01
     17 -0.474354D-02 -0.770751D-02 -0.114795D-02 -0.440594D-02 -0.663812D-03
     18 -0.197233D-02 -0.101376D-01 -0.514485D-02 -0.685165D-02 -0.368763D-03
               11            12            13            14            15 
     11  0.582337D+00
     12 -0.434746D-01  0.533059D+00
     13  0.109943D-01  0.250940D-01  0.107331D+00
     14 -0.836420D-02  0.946939D-02 -0.104129D+00  0.183741D+00
     15  0.666690D-02  0.249037D-02 -0.207547D+00  0.344472D+00  0.679027D+00
     16 -0.212485D-01 -0.392285D-01 -0.246893D-01  0.126113D+00  0.240730D+00
     17 -0.175601D-01  0.677597D-02  0.108262D+00 -0.179211D+00 -0.356535D+00
     18  0.915233D-02 -0.400314D-02  0.207120D+00 -0.358571D+00 -0.694867D+00
               16            17            18 
     16  0.846660D-01
     17 -0.103468D+00  0.193676D+00
     18 -0.203560D+00  0.361343D+00  0.711337D+00
 Leave Link  716 at Tue Jan  7 19:27:21 2025, MaxMem=   104857600 cpu:               0.0 elap:               0.0
 (Enter /opt/g16/l123.exe)
 IRC-IRC-IRC-IRC-IRC-IRC-IRC-IRC-IRC-IRC-IRC-IRC-IRC-IRC-IRC-IRC-IRC-IRC
 Pt  2 Step number   1 out of a maximum of  10
 Using modified Bulirsch-Stoer corrector integration.
   Using distance weighted interpolants to fit PES.
 PreDWI: IReCr0= 2 IReCr1= 1 IReCr2= 1 IReCr3= 1
 Modified Bulirsch-Stoer Extrapolation Cycles:
    EPS =    0.000010000000000
    Cycle     1 NS=    48
      PEZero:  N= 2 I= 1 D=  4.26D-04 Err=  8.13D-06
    Cycle     2 NS=    64 Truncation Error =  0.000008129
 BS completed in    2 cycles and     112 integration steps.
 Maximum DWI energy   std dev =  0.000000628 at pt    24
 Maximum DWI gradient std dev =  0.015722224 at pt    15
 SUMMARY OF CORRECTOR INTEGRATION:
   Predictor End Point Energy =  -132.478791
   Old End Point Energy       =  -132.478791
   Corrected End Point Energy =  -132.478791
   Predictor End-Start Dist.  =     0.081870
   Old End-Start Dist.        =     0.081870
   New End-Start Dist.        =     0.081867
   New End-Old End Dist.      =     0.000445
 CORRECTOR INTEGRATION CONVERGENCE:
   Recorrection delta-x convergence threshold:    0.010000
   Delta-x Convergence Met
 Point Number:   2          Path Number:   1
                    CURRENT STRUCTURE
                Cartesian Coordinates (Ang):                
 ---------------------------------------------------------------------
 Center     Atomic                     Coordinates (Angstroms)
 Number     Number                        X           Y           Z
 ---------------------------------------------------------------------
      1          1                   -1.511546    0.827656   -0.207861
      2          1                   -1.415821   -0.770357    0.644741
      3          1                   -1.084778   -0.656525   -1.108406
      4          6                   -1.040087   -0.145195   -0.154915
      5          6                    0.482084    0.376783    0.654194
      6          7                    0.766968   -0.155350   -0.379524
 ---------------------------------------------------------------------
   CHANGE IN THE REACTION COORDINATE =    0.08187
   NET REACTION COORDINATE UP TO THIS POINT =    0.16368
  # OF POINTS ALONG THE PATH =   2
  # OF STEPS =   1

 Calculating another point on the path.
 Point Number  3 in FORWARD path direction.
 Using LQA Reaction Path Following.
   LQA: T_Est iteration completed in    3 iterations.
 IRC-IRC-IRC-IRC-IRC-IRC-IRC-IRC-IRC-IRC-IRC-IRC-IRC-IRC-IRC-IRC-IRC-IRC
 Leave Link  123 at Tue Jan  7 19:27:21 2025, MaxMem=   104857600 cpu:               0.0 elap:               0.0
 (Enter /opt/g16/l202.exe)
                          Input orientation:                          
 ---------------------------------------------------------------------
 Center     Atomic      Atomic             Coordinates (Angstroms)
 Number     Number       Type             X           Y           Z
 ---------------------------------------------------------------------
      1          1           0       -1.506372    0.827192   -0.209225
      2          1           0       -1.410548   -0.771079    0.643096
      3          1           0       -1.090888   -0.658585   -1.112071
      4          6           0       -1.038087   -0.147282   -0.159080
      5          6           0        0.488247    0.379064    0.658080
      6          7           0        0.759668   -0.155289   -0.378802
 ---------------------------------------------------------------------
                    Distance matrix (angstroms):
                    1          2          3          4          5
     1  H    0.000000
     2  H    1.813864   0.000000
     3  H    1.787538   1.787582   0.000000
     4  C    1.082314   1.082283   1.082779   0.000000
     5  C    2.220707   2.220017   2.589174   1.809555   0.000000
     6  N    2.475674   2.476552   2.053180   1.811151   1.197634
                    6
     6  N    0.000000
 Symmetry turned off by external request.
 Stoichiometry    C2H3N
 Framework group  C1[X(C2H3N)]
 Deg. of freedom    12
 Full point group                 C1      NOp   1
 Rotational constants (GHZ):          40.3989742          15.9032844          12.3347020
 Leave Link  202 at Tue Jan  7 19:27:21 2025, MaxMem=   104857600 cpu:               0.0 elap:               0.0
 (Enter /opt/g16/l301.exe)
 Standard basis: STO-3G (5D, 7F)
 Ernie: Thresh=  0.10000D-02 Tol=  0.10000D-05 Strict=F.
    18 basis functions,    54 primitive gaussians,    18 cartesian basis functions
    11 alpha electrons       11 beta electrons
       nuclear repulsion energy        59.9226590890 Hartrees.
 IExCor=    0 DFT=F Ex=HF Corr=None ExCW=0 ScaHFX=  1.000000
 ScaDFX=  1.000000  1.000000  1.000000  1.000000 ScalE2=  1.000000  1.000000
 IRadAn=      5 IRanWt=     -1 IRanGd=            0 ICorTp=0 IEmpDi=  4
 NAtoms=    6 NActive=    6 NUniq=    6 SFac= 1.00D+00 NAtFMM=   60 NAOKFM=F Big=F
 Integral buffers will be    131072 words long.
 Raffenetti 1 integral format.
 Two-electron integral symmetry is turned off.
 Leave Link  301 at Tue Jan  7 19:27:21 2025, MaxMem=   104857600 cpu:               0.0 elap:               0.0
 (Enter /opt/g16/l402.exe)
 External calculation of energy, first and second derivatives.
 Running external command "python3 -u ../pes/ch3cn_pes.py R"
         input file       "/home/jhli/scratch/g16/Gau-989806.EIn"
         output file      "/home/jhli/scratch/g16/Gau-989806.EOu"
         message file     "/home/jhli/scratch/g16/Gau-989806.EMs"
         fchk file        "/home/jhli/scratch/g16/Gau-989806.EFC"
         mat. el file     "/home/jhli/scratch/g16/Gau-989806.EUF"
 Recovered energy= -132.478910065     dipole=      0.000000000000      0.000000000000      0.000000000000
 NRF= 0 NRA=   0 NVA=   0 HaveQM=F NVQ=       0
 Convergence limit is  0.750E-04 MaxStp= 10000 StMxLn= 3.00D-04 StpMin= 1.00D-06.
 Convergence criteria             0.00011250 0.00007500 0.00045000 0.00030000
  Step  NS  ND Rises OKQ   Scale  Max. Force  RMS Force Max. Disp.  RMS Disp.     Energy   Flag
     1   0   0   F    T  1.00D+00 0.00000000 0.00000000 0.00000000 0.00000000 -132.4789101 ====
 Running external command "python3 -u ../pes/ch3cn_pes.py R"
         input file       "/home/jhli/scratch/g16/Gau-989806.EIn"
         output file      "/home/jhli/scratch/g16/Gau-989806.EOu"
         message file     "/home/jhli/scratch/g16/Gau-989806.EMs"
         fchk file        "/home/jhli/scratch/g16/Gau-989806.EFC"
         mat. el file     "/home/jhli/scratch/g16/Gau-989806.EUF"
 Recovered energy= -132.478910065     dipole=      0.000000000000      0.000000000000      0.000000000000
 Energy=    -132.478910     NIter=   0.
 Dipole moment=       0.000000       0.000000       0.000000
 Leave Link  402 at Tue Jan  7 19:27:21 2025, MaxMem=   104857600 cpu:               0.0 elap:               0.2
 (Enter /opt/g16/l716.exe)
 Dipole        = 0.00000000D+00 0.00000000D+00 0.00000000D+00
 -------------------------------------------------------------------
 Center     Atomic                   Forces (Hartrees/Bohr)
 Number     Number              X              Y              Z
 -------------------------------------------------------------------
      1        1           0.000202472   -0.000028054   -0.000057038
      2        1           0.000205098   -0.000023880   -0.000072903
      3        1          -0.000259943   -0.000077108   -0.000131394
      4        6           0.000958056   -0.001017151   -0.002029896
      5        6           0.003023134    0.001032238    0.001719419
      6        7          -0.004125050    0.000110941    0.000573463
 -------------------------------------------------------------------
 Cartesian Forces:  Max     0.004125050 RMS     0.001429358
 Force constants in Cartesian coordinates: 
                1             2             3             4             5 
      1  0.100597D+00
      2 -0.118495D+00  0.306281D+00
      3  0.628581D-02 -0.116373D-01  0.489341D-01
      4  0.687903D-02  0.567676D-02 -0.106118D-01  0.798082D-01
      5 -0.936065D-02 -0.103479D-01  0.204845D-01  0.595746D-01  0.151728D+00
      6 -0.109831D-02 -0.437868D-02  0.122802D-02 -0.763470D-01 -0.134770D+00
      7  0.303370D-02  0.504767D-02  0.112341D-01  0.271296D-02  0.523836D-02
      8 -0.133873D-02 -0.112074D-01 -0.261182D-01  0.249597D-02  0.103808D-01
      9  0.188932D-02  0.274961D-02  0.330525D-02  0.651532D-04 -0.124412D-01
     10 -0.912574D-01  0.114563D+00  0.386033D-02 -0.721105D-01 -0.483936D-01
     11  0.116378D+00 -0.292875D+00  0.153363D-01 -0.491070D-01 -0.151463D+00
     12  0.411595D-02  0.173605D-01 -0.511412D-01  0.812614D-01  0.128198D+00
     13 -0.209887D-01 -0.720415D-02 -0.104356D-01 -0.201094D-01 -0.647742D-02
     14  0.346448D-02  0.436676D-02  0.430334D-02 -0.125025D-01 -0.100909D-02
     15 -0.102098D-01 -0.539288D-03  0.140332D-02 -0.174439D-02  0.183070D-02
     16  0.173882D-02  0.407757D-03 -0.333813D-03  0.282171D-02 -0.580058D-03
     17  0.935836D-02  0.378759D-02 -0.236542D-02 -0.613688D-02  0.720379D-03
     18 -0.983703D-03 -0.356222D-02 -0.372592D-02  0.737933D-02 -0.329687D-02
                6             7             8             9            10 
      6  0.224055D+00
      7  0.782723D-02  0.466345D-01
      8  0.174538D-01  0.554791D-02  0.114605D+00
      9 -0.179664D-01  0.102995D-01  0.129069D+00  0.286437D+00
     10  0.793672D-01 -0.262622D-01 -0.415339D-02 -0.104198D-01  0.270063D+00
     11  0.130102D+00 -0.945172D-02 -0.112948D+00 -0.118832D+00 -0.477462D-01
     12 -0.211447D+00 -0.203808D-01 -0.119446D+00 -0.270803D+00 -0.511996D-01
     13 -0.102346D-01  0.110765D-01 -0.118734D-02 -0.371283D-02 -0.503854D-01
     14 -0.355318D-02  0.146078D-02  0.702810D-04  0.364770D-02 -0.135671D-01
     15  0.581446D-02  0.131780D-02  0.397120D-02  0.532688D-02 -0.211500D-01
     16  0.481977D-03 -0.371954D-01 -0.136113D-02  0.188558D-02 -0.300668D-01
     17 -0.485291D-02 -0.784673D-02 -0.896154D-03 -0.419198D-02 -0.704735D-03
     18 -0.167589D-02 -0.103045D-01 -0.493549D-02 -0.629744D-02 -0.461763D-03
               11            12            13            14            15 
     11  0.583556D+00
     12 -0.423884D-01  0.535240D+00
     13  0.110141D-01  0.251594D-01  0.997972D-01
     14 -0.760817D-02  0.883633D-02 -0.990447D-01  0.184554D+00
     15  0.601034D-02  0.240375D-02 -0.197335D+00  0.347651D+00  0.683088D+00
     16 -0.210912D-01 -0.389611D-01 -0.193841D-01  0.120189D+00  0.229122D+00
     17 -0.186871D-01  0.743245D-02  0.102895D+00 -0.180371D+00 -0.358919D+00
     18  0.978577D-02 -0.426164D-02  0.196544D+00 -0.360892D+00 -0.698039D+00
               16            17            18 
     16  0.820942D-01
     17 -0.975632D-01  0.195448D+00
     18 -0.192171D+00  0.362898D+00  0.713998D+00
 Leave Link  716 at Tue Jan  7 19:27:21 2025, MaxMem=   104857600 cpu:               0.0 elap:               0.0
 (Enter /opt/g16/l123.exe)
 IRC-IRC-IRC-IRC-IRC-IRC-IRC-IRC-IRC-IRC-IRC-IRC-IRC-IRC-IRC-IRC-IRC-IRC
 Pt  3 Step number   1 out of a maximum of  10
 Using modified Bulirsch-Stoer corrector integration.
   Using distance weighted interpolants to fit PES.
 PreDWI: IReCr0= 2 IReCr1= 1 IReCr2= 1 IReCr3= 1
 Modified Bulirsch-Stoer Extrapolation Cycles:
    EPS =    0.000010000000000
    Cycle     1 NS=    48
      PEZero:  N= 2 I= 1 D=  4.26D-04 Err=  2.49D-06
    Cycle     2 NS=    64 Truncation Error =  0.000002488
 BS completed in    2 cycles and     112 integration steps.
 Maximum DWI energy   std dev =  0.000000565 at pt    32
 Maximum DWI gradient std dev =  0.008989859 at pt    16
 SUMMARY OF CORRECTOR INTEGRATION:
   Predictor End Point Energy =  -132.478910
   Old End Point Energy       =  -132.478910
   Corrected End Point Energy =  -132.478910
   Predictor End-Start Dist.  =     0.081877
   Old End-Start Dist.        =     0.081877
   New End-Start Dist.        =     0.081875
   New End-Old End Dist.      =     0.000381
 CORRECTOR INTEGRATION CONVERGENCE:
   Recorrection delta-x convergence threshold:    0.010000
   Delta-x Convergence Met
 Point Number:   3          Path Number:   1
                    CURRENT STRUCTURE
                Cartesian Coordinates (Ang):                
 ---------------------------------------------------------------------
 Center     Atomic                     Coordinates (Angstroms)
 Number     Number                        X           Y           Z
 ---------------------------------------------------------------------
      1          1                   -1.506405    0.827170   -0.209221
      2          1                   -1.410582   -0.771070    0.643079
      3          1                   -1.090942   -0.658575   -1.112051
      4          6                   -1.038089   -0.147284   -0.159085
      5          6                    0.488262    0.379048    0.658049
      6          7                    0.759666   -0.155274   -0.378771
 ---------------------------------------------------------------------
   CHANGE IN THE REACTION COORDINATE =    0.08188
   NET REACTION COORDINATE UP TO THIS POINT =    0.24556
  # OF POINTS ALONG THE PATH =   3
  # OF STEPS =   1

 Calculating another point on the path.
 Point Number  4 in FORWARD path direction.
 Using LQA Reaction Path Following.
   LQA: T_Est iteration completed in    3 iterations.
 IRC-IRC-IRC-IRC-IRC-IRC-IRC-IRC-IRC-IRC-IRC-IRC-IRC-IRC-IRC-IRC-IRC-IRC
 Leave Link  123 at Tue Jan  7 19:27:21 2025, MaxMem=   104857600 cpu:               0.0 elap:               0.0
 (Enter /opt/g16/l202.exe)
                          Input orientation:                          
 ---------------------------------------------------------------------
 Center     Atomic      Atomic             Coordinates (Angstroms)
 Number     Number       Type             X           Y           Z
 ---------------------------------------------------------------------
      1          1           0       -1.501357    0.826627   -0.210648
      2          1           0       -1.405465   -0.771703    0.641417
      3          1           0       -1.097273   -0.660698   -1.115655
      4          6           0       -1.036126   -0.149391   -0.163286
      5          6           0        0.494478    0.381322    0.661844
      6          7           0        0.752386   -0.155184   -0.377939
 ---------------------------------------------------------------------
                    Distance matrix (angstroms):
                    1          2          3          4          5
     1  H    0.000000
     2  H    1.813799   0.000000
     3  H    1.787304   1.787346   0.000000
     4  C    1.082264   1.082234   1.082673   0.000000
     5  C    2.223263   2.222536   2.603647   1.818033   0.000000
     6  N    2.464000   2.464854   2.054509   1.801356   1.198125
                    6
     6  N    0.000000
 Symmetry turned off by external request.
 Stoichiometry    C2H3N
 Framework group  C1[X(C2H3N)]
 Deg. of freedom    12
 Full point group                 C1      NOp   1
 Rotational constants (GHZ):          40.3460907          15.9323072          12.3471336
 Leave Link  202 at Tue Jan  7 19:27:21 2025, MaxMem=   104857600 cpu:               0.0 elap:               0.0
 (Enter /opt/g16/l301.exe)
 Standard basis: STO-3G (5D, 7F)
 Ernie: Thresh=  0.10000D-02 Tol=  0.10000D-05 Strict=F.
    18 basis functions,    54 primitive gaussians,    18 cartesian basis functions
    11 alpha electrons       11 beta electrons
       nuclear repulsion energy        59.9362672566 Hartrees.
 IExCor=    0 DFT=F Ex=HF Corr=None ExCW=0 ScaHFX=  1.000000
 ScaDFX=  1.000000  1.000000  1.000000  1.000000 ScalE2=  1.000000  1.000000
 IRadAn=      5 IRanWt=     -1 IRanGd=            0 ICorTp=0 IEmpDi=  4
 NAtoms=    6 NActive=    6 NUniq=    6 SFac= 1.00D+00 NAtFMM=   60 NAOKFM=F Big=F
 Integral buffers will be    131072 words long.
 Raffenetti 1 integral format.
 Two-electron integral symmetry is turned off.
 Leave Link  301 at Tue Jan  7 19:27:21 2025, MaxMem=   104857600 cpu:               0.0 elap:               0.0
 (Enter /opt/g16/l402.exe)
 External calculation of energy, first and second derivatives.
 Running external command "python3 -u ../pes/ch3cn_pes.py R"
         input file       "/home/jhli/scratch/g16/Gau-989806.EIn"
         output file      "/home/jhli/scratch/g16/Gau-989806.EOu"
         message file     "/home/jhli/scratch/g16/Gau-989806.EMs"
         fchk file        "/home/jhli/scratch/g16/Gau-989806.EFC"
         mat. el file     "/home/jhli/scratch/g16/Gau-989806.EUF"
 Recovered energy= -132.479073067     dipole=      0.000000000000      0.000000000000      0.000000000000
 NRF= 0 NRA=   0 NVA=   0 HaveQM=F NVQ=       0
 Convergence limit is  0.750E-04 MaxStp= 10000 StMxLn= 3.00D-04 StpMin= 1.00D-06.
 Convergence criteria             0.00011250 0.00007500 0.00045000 0.00030000
  Step  NS  ND Rises OKQ   Scale  Max. Force  RMS Force Max. Disp.  RMS Disp.     Energy   Flag
     1   0   0   F    T  1.00D+00 0.00000000 0.00000000 0.00000000 0.00000000 -132.4790731 ====
 Running external command "python3 -u ../pes/ch3cn_pes.py R"
         input file       "/home/jhli/scratch/g16/Gau-989806.EIn"
         output file      "/home/jhli/scratch/g16/Gau-989806.EOu"
         message file     "/home/jhli/scratch/g16/Gau-989806.EMs"
         fchk file        "/home/jhli/scratch/g16/Gau-989806.EFC"
         mat. el file     "/home/jhli/scratch/g16/Gau-989806.EUF"
 Recovered energy= -132.479073067     dipole=      0.000000000000      0.000000000000      0.000000000000
 Energy=    -132.479073     NIter=   0.
 Dipole moment=       0.000000       0.000000       0.000000
 Leave Link  402 at Tue Jan  7 19:27:21 2025, MaxMem=   104857600 cpu:               0.0 elap:               0.2
 (Enter /opt/g16/l716.exe)
 Dipole        = 0.00000000D+00 0.00000000D+00 0.00000000D+00
 -------------------------------------------------------------------
 Center     Atomic                   Forces (Hartrees/Bohr)
 Number     Number              X              Y              Z
 -------------------------------------------------------------------
      1        1           0.000257680   -0.000037264   -0.000076679
      2        1           0.000260271   -0.000028877   -0.000093819
      3        1          -0.000345695   -0.000104694   -0.000172508
      4        6           0.001221643   -0.001333859   -0.002657190
      5        6           0.003953921    0.001356393    0.002227158
      6        7          -0.005344020    0.000145103    0.000775144
 -------------------------------------------------------------------
 Cartesian Forces:  Max     0.005344020 RMS     0.001859771
 Force constants in Cartesian coordinates: 
                1             2             3             4             5 
      1  0.100015D+00
      2 -0.117677D+00  0.307178D+00
      3  0.598439D-02 -0.110163D-01  0.490492D-01
      4  0.669722D-02  0.552836D-02 -0.105968D-01  0.794003D-01
      5 -0.925667D-02 -0.104452D-01  0.207767D-01  0.588538D-01  0.151459D+00
      6 -0.121145D-02 -0.422881D-02  0.144119D-02 -0.757122D-01 -0.134836D+00
      7  0.305386D-02  0.505322D-02  0.112083D-01  0.270528D-02  0.520623D-02
      8 -0.156981D-02 -0.112289D-01 -0.261407D-01  0.275501D-02  0.104624D-01
      9  0.205614D-02  0.266168D-02  0.332816D-02 -0.391641D-04 -0.124094D-01
     10 -0.905857D-01  0.113943D+00  0.389688D-02 -0.715934D-01 -0.480029D-01
     11  0.115253D+00 -0.293726D+00  0.145775D-01 -0.485208D-01 -0.151243D+00
     12  0.404507D-02  0.166119D-01 -0.514697D-01  0.801709D-01  0.128060D+00
     13 -0.204863D-01 -0.694669D-02 -0.103333D-01 -0.196158D-01 -0.649583D-02
     14  0.364718D-02  0.412901D-02  0.409024D-02 -0.118903D-01 -0.887393D-03
     15 -0.940368D-02 -0.582372D-03  0.144224D-02 -0.118419D-02  0.187885D-02
     16  0.130881D-02  0.957961D-04 -0.160907D-03  0.240835D-02 -0.303780D-03
     17  0.961083D-02  0.409793D-02 -0.228424D-02 -0.672523D-02  0.664342D-03
     18 -0.147127D-02 -0.345309D-02 -0.378748D-02  0.736407D-02 -0.346463D-02
                6             7             8             9            10 
      6  0.225160D+00
      7  0.781731D-02  0.467723D-01
      8  0.174154D-01  0.673135D-02  0.114660D+00
      9 -0.180193D-01  0.124931D-01  0.129336D+00  0.286633D+00
     10  0.787554D-01 -0.260313D-01 -0.530427D-02 -0.126027D-01  0.269181D+00
     11  0.130006D+00 -0.106899D-01 -0.113045D+00 -0.119097D+00 -0.460742D-01
     12 -0.212691D+00 -0.227281D-01 -0.119720D+00 -0.271027D+00 -0.479050D-01
     13 -0.100173D-01  0.114000D-01 -0.115296D-02 -0.370684D-02 -0.496119D-01
     14 -0.339556D-02  0.168165D-02 -0.201923D-03  0.347719D-02 -0.137917D-01
     15  0.550239D-02  0.167293D-02  0.382018D-02  0.481299D-02 -0.215502D-01
     16  0.364793D-03 -0.379007D-01 -0.145578D-02  0.180693D-02 -0.313775D-01
     17 -0.496002D-02 -0.798626D-02 -0.641261D-03 -0.396730D-02 -0.772040D-03
     18 -0.138581D-02 -0.104701D-01 -0.471609D-02 -0.572538D-02 -0.598170D-03
               11            12            13            14            15 
     11  0.584683D+00
     12 -0.412219D-01  0.537436D+00
     13  0.110255D-01  0.252145D-01  0.925565D-01
     14 -0.690662D-02  0.820535D-02 -0.939082D-01  0.185387D+00
     15  0.535590D-02  0.226452D-02 -0.187019D+00  0.350712D+00  0.686897D+00
     16 -0.209976D-01 -0.388034D-01 -0.142357D-01  0.114262D+00  0.217485D+00
     17 -0.197868D-01  0.805855D-02  0.974742D-01 -0.181518D+00 -0.361180D+00
     18  0.103930D-01 -0.452201D-02  0.185848D+00 -0.363096D+00 -0.700922D+00
               16            17            18 
     16  0.798045D-01
     17 -0.915994D-01  0.197186D+00
     18 -0.180670D+00  0.364334D+00  0.716342D+00
 Leave Link  716 at Tue Jan  7 19:27:21 2025, MaxMem=   104857600 cpu:               0.0 elap:               0.0
 (Enter /opt/g16/l123.exe)
 IRC-IRC-IRC-IRC-IRC-IRC-IRC-IRC-IRC-IRC-IRC-IRC-IRC-IRC-IRC-IRC-IRC-IRC
 Pt  4 Step number   1 out of a maximum of  10
 Using modified Bulirsch-Stoer corrector integration.
   Using distance weighted interpolants to fit PES.
 PreDWI: IReCr0= 2 IReCr1= 1 IReCr2= 1 IReCr3= 1
 Modified Bulirsch-Stoer Extrapolation Cycles:
    EPS =    0.000010000000000
    Cycle     1 NS=    48
      PEZero:  N= 2 I= 1 D=  4.26D-04 Err=  2.05D-06
    Cycle     2 NS=    64 Truncation Error =  0.000002050
 BS completed in    2 cycles and     112 integration steps.
 Maximum DWI energy   std dev =  0.000000530 at pt    32
 Maximum DWI gradient std dev =  0.006377430 at pt    16
 SUMMARY OF CORRECTOR INTEGRATION:
   Predictor End Point Energy =  -132.479073
   Old End Point Energy       =  -132.479073
   Corrected End Point Energy =  -132.479073
   Predictor End-Start Dist.  =     0.081879
   Old End-Start Dist.        =     0.081879
   New End-Start Dist.        =     0.081878
   New End-Old End Dist.      =     0.000336
 CORRECTOR INTEGRATION CONVERGENCE:
   Recorrection delta-x convergence threshold:    0.010000
   Delta-x Convergence Met
 Point Number:   4          Path Number:   1
                    CURRENT STRUCTURE
                Cartesian Coordinates (Ang):                
 ---------------------------------------------------------------------
 Center     Atomic                     Coordinates (Angstroms)
 Number     Number                        X           Y           Z
 ---------------------------------------------------------------------
      1          1                   -1.501386    0.826608   -0.210647
      2          1                   -1.405495   -0.771696    0.641402
      3          1                   -1.097313   -0.660688   -1.115634
      4          6                   -1.036127   -0.149393   -0.163290
      5          6                    0.494490    0.381308    0.661816
      6          7                    0.752384   -0.155171   -0.377911
 ---------------------------------------------------------------------
   CHANGE IN THE REACTION COORDINATE =    0.08188
   NET REACTION COORDINATE UP TO THIS POINT =    0.32743
  # OF POINTS ALONG THE PATH =   4
  # OF STEPS =   1

 Calculating another point on the path.
 Point Number  5 in FORWARD path direction.
 Using LQA Reaction Path Following.
   LQA: T_Est iteration completed in    3 iterations.
 IRC-IRC-IRC-IRC-IRC-IRC-IRC-IRC-IRC-IRC-IRC-IRC-IRC-IRC-IRC-IRC-IRC-IRC
 Leave Link  123 at Tue Jan  7 19:27:21 2025, MaxMem=   104857600 cpu:               0.0 elap:               0.0
 (Enter /opt/g16/l202.exe)
                          Input orientation:                          
 ---------------------------------------------------------------------
 Center     Atomic      Atomic             Coordinates (Angstroms)
 Number     Number       Type             X           Y           Z
 ---------------------------------------------------------------------
      1          1           0       -1.496479    0.825990   -0.212107
      2          1           0       -1.400537   -0.772265    0.639709
      3          1           0       -1.103848   -0.662839   -1.119183
      4          6           0       -1.034203   -0.151518   -0.167519
      5          6           0        0.500765    0.383561    0.665523
      6          7           0        0.745123   -0.155044   -0.376979
 ---------------------------------------------------------------------
                    Distance matrix (angstroms):
                    1          2          3          4          5
     1  H    0.000000
     2  H    1.813619   0.000000
     3  H    1.787053   1.787093   0.000000
     4  C    1.082224   1.082195   1.082573   0.000000
     5  C    2.225974   2.225208   2.618189   1.826580   0.000000
     6  N    2.452424   2.453257   2.056069   1.791615   1.198589
                    6
     6  N    0.000000
 Symmetry turned off by external request.
 Stoichiometry    C2H3N
 Framework group  C1[X(C2H3N)]
 Deg. of freedom    12
 Full point group                 C1      NOp   1
 Rotational constants (GHZ):          40.3198681          15.9552767          12.3582633
 Leave Link  202 at Tue Jan  7 19:27:21 2025, MaxMem=   104857600 cpu:               0.0 elap:               0.0
 (Enter /opt/g16/l301.exe)
 Standard basis: STO-3G (5D, 7F)
 Ernie: Thresh=  0.10000D-02 Tol=  0.10000D-05 Strict=F.
    18 basis functions,    54 primitive gaussians,    18 cartesian basis functions
    11 alpha electrons       11 beta electrons
       nuclear repulsion energy        59.9503442133 Hartrees.
 IExCor=    0 DFT=F Ex=HF Corr=None ExCW=0 ScaHFX=  1.000000
 ScaDFX=  1.000000  1.000000  1.000000  1.000000 ScalE2=  1.000000  1.000000
 IRadAn=      5 IRanWt=     -1 IRanGd=            0 ICorTp=0 IEmpDi=  4
 NAtoms=    6 NActive=    6 NUniq=    6 SFac= 1.00D+00 NAtFMM=   60 NAOKFM=F Big=F
 Integral buffers will be    131072 words long.
 Raffenetti 1 integral format.
 Two-electron integral symmetry is turned off.
 Leave Link  301 at Tue Jan  7 19:27:21 2025, MaxMem=   104857600 cpu:               0.0 elap:               0.0
 (Enter /opt/g16/l402.exe)
 External calculation of energy, first and second derivatives.
 Running external command "python3 -u ../pes/ch3cn_pes.py R"
         input file       "/home/jhli/scratch/g16/Gau-989806.EIn"
         output file      "/home/jhli/scratch/g16/Gau-989806.EOu"
         message file     "/home/jhli/scratch/g16/Gau-989806.EMs"
         fchk file        "/home/jhli/scratch/g16/Gau-989806.EFC"
         mat. el file     "/home/jhli/scratch/g16/Gau-989806.EUF"
 Recovered energy= -132.479278125     dipole=      0.000000000000      0.000000000000      0.000000000000
 NRF= 0 NRA=   0 NVA=   0 HaveQM=F NVQ=       0
 Convergence limit is  0.750E-04 MaxStp= 10000 StMxLn= 3.00D-04 StpMin= 1.00D-06.
 Convergence criteria             0.00011250 0.00007500 0.00045000 0.00030000
  Step  NS  ND Rises OKQ   Scale  Max. Force  RMS Force Max. Disp.  RMS Disp.     Energy   Flag
     1   0   0   F    T  1.00D+00 0.00000000 0.00000000 0.00000000 0.00000000 -132.4792781 ====
 Running external command "python3 -u ../pes/ch3cn_pes.py R"
         input file       "/home/jhli/scratch/g16/Gau-989806.EIn"
         output file      "/home/jhli/scratch/g16/Gau-989806.EOu"
         message file     "/home/jhli/scratch/g16/Gau-989806.EMs"
         fchk file        "/home/jhli/scratch/g16/Gau-989806.EFC"
         mat. el file     "/home/jhli/scratch/g16/Gau-989806.EUF"
 Recovered energy= -132.479278125     dipole=      0.000000000000      0.000000000000      0.000000000000
 Energy=    -132.479278     NIter=   0.
 Dipole moment=       0.000000       0.000000       0.000000
 Leave Link  402 at Tue Jan  7 19:27:21 2025, MaxMem=   104857600 cpu:               0.0 elap:               0.2
 (Enter /opt/g16/l716.exe)
 Dipole        = 0.00000000D+00 0.00000000D+00 0.00000000D+00
 -------------------------------------------------------------------
 Center     Atomic                   Forces (Hartrees/Bohr)
 Number     Number              X              Y              Z
 -------------------------------------------------------------------
      1        1           0.000306207   -0.000047991   -0.000095504
      2        1           0.000308577   -0.000032981   -0.000115155
      3        1          -0.000432089   -0.000130718   -0.000210588
      4        6           0.001460208   -0.001640197   -0.003262397
      5        6           0.004863791    0.001653683    0.002686792
      6        7          -0.006502905    0.000194821    0.000999393
 -------------------------------------------------------------------
 Cartesian Forces:  Max     0.006502905 RMS     0.002271356
 Force constants in Cartesian coordinates: 
                1             2             3             4             5 
      1  0.994761D-01
      2 -0.116866D+00  0.308015D+00
      3  0.569607D-02 -0.103788D-01  0.491511D-01
      4  0.652082D-02  0.539129D-02 -0.105781D-01  0.790359D-01
      5 -0.915666D-02 -0.105376D-01  0.210617D-01  0.581528D-01  0.151129D+00
      6 -0.131235D-02 -0.408275D-02  0.164925D-02 -0.750889D-01 -0.134869D+00
      7  0.307649D-02  0.506584D-02  0.111769D-01  0.270165D-02  0.516726D-02
      8 -0.180298D-02 -0.112491D-01 -0.261608D-01  0.300057D-02  0.105322D-01
      9  0.220333D-02  0.258727D-02  0.334667D-02 -0.155399D-03 -0.123857D-01
     10 -0.899247D-01  0.113304D+00  0.390675D-02 -0.710884D-01 -0.476263D-01
     11  0.114132D+00 -0.294516D+00  0.137905D-01 -0.479512D-01 -0.150964D+00
     12  0.395962D-02  0.158447D-01 -0.517957D-01  0.790881D-01  0.127876D+00
     13 -0.199732D-01 -0.671399D-02 -0.102018D-01 -0.191150D-01 -0.647644D-02
     14  0.382795D-02  0.390098D-02  0.388001D-02 -0.112929D-01 -0.763993D-03
     15 -0.861752D-02 -0.618561D-03  0.148248D-02 -0.635433D-03  0.192062D-02
     16  0.827048D-03 -0.184435D-03 -0.133894D-05  0.194696D-02 -0.600924D-04
     17  0.987299D-02  0.439208D-02 -0.218957D-02 -0.729983D-02  0.614832D-03
     18 -0.193002D-02 -0.335864D-02 -0.383011D-02  0.737250D-02 -0.359891D-02
                6             7             8             9            10 
      6  0.226253D+00
      7  0.780961D-02  0.470036D-01
      8  0.173818D-01  0.792737D-02  0.114713D+00
      9 -0.180652D-01  0.147006D-01  0.129573D+00  0.286757D+00
     10  0.781238D-01 -0.258700D-01 -0.645792D-02 -0.147835D-01  0.268526D+00
     11  0.129872D+00 -0.119111D-01 -0.113143D+00 -0.119343D+00 -0.443374D-01
     12 -0.213929D+00 -0.250355D-01 -0.119974D+00 -0.271202D+00 -0.445270D-01
     13 -0.980439D-02  0.116945D-01 -0.112148D-02 -0.370078D-02 -0.489613D-01
     14 -0.323706D-02  0.187277D-02 -0.462970D-03  0.330274D-02 -0.140188D-01
     15  0.520278D-02  0.197738D-02  0.366223D-02  0.430578D-02 -0.219465D-01
     16  0.268842D-03 -0.386076D-01 -0.154179D-02  0.174370D-02 -0.326991D-01
     17 -0.506435D-02 -0.812584D-02 -0.384702D-03 -0.373311D-02 -0.865566D-03
     18 -0.110321D-02 -0.106353D-01 -0.448809D-02 -0.513946D-02 -0.777598D-03
               11            12            13            14            15 
     11  0.585715D+00
     12 -0.399853D-01  0.539624D+00
     13  0.110302D-01  0.252627D-01  0.856034D-01
     14 -0.625871D-02  0.757805D-02 -0.887201D-01  0.186227D+00
     15  0.470561D-02  0.207577D-02 -0.176611D+00  0.353646D+00  0.690468D+00
     16 -0.209671D-01 -0.387551D-01 -0.924108D-02  0.108332D+00  0.205835D+00
     17 -0.208581D-01  0.865351D-02  0.919978D-01 -0.182639D+00 -0.363311D+00
     18  0.109733D-01 -0.478336D-02  0.175041D+00 -0.365176D+00 -0.703538D+00
               16            17            18 
     16  0.777809D-01
     17 -0.855775D-01  0.198878D+00
     18 -0.169068D+00  0.365646D+00  0.718394D+00
 Leave Link  716 at Tue Jan  7 19:27:21 2025, MaxMem=   104857600 cpu:               0.0 elap:               0.0
 (Enter /opt/g16/l123.exe)
 IRC-IRC-IRC-IRC-IRC-IRC-IRC-IRC-IRC-IRC-IRC-IRC-IRC-IRC-IRC-IRC-IRC-IRC
 Pt  5 Step number   1 out of a maximum of  10
 Using modified Bulirsch-Stoer corrector integration.
   Using distance weighted interpolants to fit PES.
 PreDWI: IReCr0= 2 IReCr1= 1 IReCr2= 1 IReCr3= 1
 Modified Bulirsch-Stoer Extrapolation Cycles:
    EPS =    0.000010000000000
    Cycle     1 NS=    48
      PEZero:  N= 2 I= 1 D=  4.26D-04 Err=  2.08D-06
    Cycle     2 NS=    64 Truncation Error =  0.000002079
 BS completed in    2 cycles and     112 integration steps.
 Maximum DWI energy   std dev =  0.000000495 at pt    32
 Maximum DWI gradient std dev =  0.004989130 at pt    16
 SUMMARY OF CORRECTOR INTEGRATION:
   Predictor End Point Energy =  -132.479278
   Old End Point Energy       =  -132.479278
   Corrected End Point Energy =  -132.479278
   Predictor End-Start Dist.  =     0.081880
   Old End-Start Dist.        =     0.081880
   New End-Start Dist.        =     0.081879
   New End-Old End Dist.      =     0.000301
 CORRECTOR INTEGRATION CONVERGENCE:
   Recorrection delta-x convergence threshold:    0.010000
   Delta-x Convergence Met
 Point Number:   5          Path Number:   1
                    CURRENT STRUCTURE
                Cartesian Coordinates (Ang):                
 ---------------------------------------------------------------------
 Center     Atomic                     Coordinates (Angstroms)
 Number     Number                        X           Y           Z
 ---------------------------------------------------------------------
      1          1                   -1.496505    0.825973   -0.212108
      2          1                   -1.400564   -0.772261    0.639695
      3          1                   -1.103879   -0.662829   -1.119163
      4          6                   -1.034203   -0.151519   -0.167522
      5          6                    0.500776    0.383548    0.665497
      6          7                    0.745120   -0.155031   -0.376954
 ---------------------------------------------------------------------
   CHANGE IN THE REACTION COORDINATE =    0.08188
   NET REACTION COORDINATE UP TO THIS POINT =    0.40931
  # OF POINTS ALONG THE PATH =   5
  # OF STEPS =   1

 Calculating another point on the path.
 Point Number  6 in FORWARD path direction.
 Using LQA Reaction Path Following.
   LQA: T_Est iteration completed in    3 iterations.
 IRC-IRC-IRC-IRC-IRC-IRC-IRC-IRC-IRC-IRC-IRC-IRC-IRC-IRC-IRC-IRC-IRC-IRC
 Leave Link  123 at Tue Jan  7 19:27:21 2025, MaxMem=   104857600 cpu:               0.0 elap:               0.0
 (Enter /opt/g16/l202.exe)
                          Input orientation:                          
 ---------------------------------------------------------------------
 Center     Atomic      Atomic             Coordinates (Angstroms)
 Number     Number       Type             X           Y           Z
 ---------------------------------------------------------------------
      1          1           0       -1.491749    0.825281   -0.213592
      2          1           0       -1.395770   -0.772783    0.637962
      3          1           0       -1.110599   -0.664993   -1.122659
      4          6           0       -1.032320   -0.153660   -0.171776
      5          6           0        0.507112    0.385772    0.669119
      6          7           0        0.737877   -0.154863   -0.375927
 ---------------------------------------------------------------------
                    Distance matrix (angstroms):
                    1          2          3          4          5
     1  H    0.000000
     2  H    1.813330   0.000000
     3  H    1.786783   1.786821   0.000000
     4  C    1.082196   1.082167   1.082482   0.000000
     5  C    2.228854   2.228045   2.632786   1.835195   0.000000
     6  N    2.440956   2.441771   2.057840   1.781931   1.199024
                    6
     6  N    0.000000
 Symmetry turned off by external request.
 Stoichiometry    C2H3N
 Framework group  C1[X(C2H3N)]
 Deg. of freedom    12
 Full point group                 C1      NOp   1
 Rotational constants (GHZ):          40.3204508          15.9720608          12.3680651
 Leave Link  202 at Tue Jan  7 19:27:21 2025, MaxMem=   104857600 cpu:               0.0 elap:               0.0
 (Enter /opt/g16/l301.exe)
 Standard basis: STO-3G (5D, 7F)
 Ernie: Thresh=  0.10000D-02 Tol=  0.10000D-05 Strict=F.
    18 basis functions,    54 primitive gaussians,    18 cartesian basis functions
    11 alpha electrons       11 beta electrons
       nuclear repulsion energy        59.9648658428 Hartrees.
 IExCor=    0 DFT=F Ex=HF Corr=None ExCW=0 ScaHFX=  1.000000
 ScaDFX=  1.000000  1.000000  1.000000  1.000000 ScalE2=  1.000000  1.000000
 IRadAn=      5 IRanWt=     -1 IRanGd=            0 ICorTp=0 IEmpDi=  4
 NAtoms=    6 NActive=    6 NUniq=    6 SFac= 1.00D+00 NAtFMM=   60 NAOKFM=F Big=F
 Integral buffers will be    131072 words long.
 Raffenetti 1 integral format.
 Two-electron integral symmetry is turned off.
 Leave Link  301 at Tue Jan  7 19:27:21 2025, MaxMem=   104857600 cpu:               0.0 elap:               0.0
 (Enter /opt/g16/l402.exe)
 External calculation of energy, first and second derivatives.
 Running external command "python3 -u ../pes/ch3cn_pes.py R"
         input file       "/home/jhli/scratch/g16/Gau-989806.EIn"
         output file      "/home/jhli/scratch/g16/Gau-989806.EOu"
         message file     "/home/jhli/scratch/g16/Gau-989806.EMs"
         fchk file        "/home/jhli/scratch/g16/Gau-989806.EFC"
         mat. el file     "/home/jhli/scratch/g16/Gau-989806.EUF"
 Recovered energy= -132.479523404     dipole=      0.000000000000      0.000000000000      0.000000000000
 NRF= 0 NRA=   0 NVA=   0 HaveQM=F NVQ=       0
 Convergence limit is  0.750E-04 MaxStp= 10000 StMxLn= 3.00D-04 StpMin= 1.00D-06.
 Convergence criteria             0.00011250 0.00007500 0.00045000 0.00030000
  Step  NS  ND Rises OKQ   Scale  Max. Force  RMS Force Max. Disp.  RMS Disp.     Energy   Flag
     1   0   0   F    T  1.00D+00 0.00000000 0.00000000 0.00000000 0.00000000 -132.4795234 ====
 Running external command "python3 -u ../pes/ch3cn_pes.py R"
         input file       "/home/jhli/scratch/g16/Gau-989806.EIn"
         output file      "/home/jhli/scratch/g16/Gau-989806.EOu"
         message file     "/home/jhli/scratch/g16/Gau-989806.EMs"
         fchk file        "/home/jhli/scratch/g16/Gau-989806.EFC"
         mat. el file     "/home/jhli/scratch/g16/Gau-989806.EUF"
 Recovered energy= -132.479523404     dipole=      0.000000000000      0.000000000000      0.000000000000
 Energy=    -132.479523     NIter=   0.
 Dipole moment=       0.000000       0.000000       0.000000
 Leave Link  402 at Tue Jan  7 19:27:22 2025, MaxMem=   104857600 cpu:               0.0 elap:               0.2
 (Enter /opt/g16/l716.exe)
 Dipole        = 0.00000000D+00 0.00000000D+00 0.00000000D+00
 -------------------------------------------------------------------
 Center     Atomic                   Forces (Hartrees/Bohr)
 Number     Number              X              Y              Z
 -------------------------------------------------------------------
      1        1           0.000348182   -0.000060176   -0.000113895
      2        1           0.000350178   -0.000036506   -0.000137092
      3        1          -0.000518076   -0.000155219   -0.000245816
      4        6           0.001674761   -0.001936654   -0.003846467
      5        6           0.005754709    0.001925909    0.003101466
      6        7          -0.007606022    0.000259080    0.001244757
 -------------------------------------------------------------------
 Cartesian Forces:  Max     0.007606022 RMS     0.002665596
 Force constants in Cartesian coordinates: 
                1             2             3             4             5 
      1  0.989826D-01
      2 -0.116064D+00  0.308788D+00
      3  0.541939D-02 -0.972400D-02  0.492387D-01
      4  0.635122D-02  0.526580D-02 -0.105558D-01  0.787144D-01
      5 -0.906048D-02 -0.106256D-01  0.213385D-01  0.574737D-01  0.150742D+00
      6 -0.140117D-02 -0.394109D-02  0.185092D-02 -0.744779D-01 -0.134869D+00
      7  0.310252D-02  0.508331D-02  0.111406D-01  0.270284D-02  0.512321D-02
      8 -0.203734D-02 -0.112685D-01 -0.261788D-01  0.323208D-02  0.105905D-01
      9  0.233074D-02  0.252498D-02  0.336014D-02 -0.283029D-03 -0.123691D-01
     10 -0.892778D-01  0.112650D+00  0.389489D-02 -0.705974D-01 -0.472640D-01
     11  0.113020D+00 -0.295242D+00  0.129769D-01 -0.473992D-01 -0.150629D+00
     12  0.386412D-02  0.150584D-01 -0.521153D-01  0.780170D-01  0.127651D+00
     13 -0.194528D-01 -0.650405D-02 -0.100437D-01 -0.186098D-01 -0.642229D-02
     14  0.400435D-02  0.368365D-02  0.367290D-02 -0.107123D-01 -0.640149D-03
     15 -0.785524D-02 -0.646451D-03  0.152360D-02 -0.102215D-03  0.195460D-02
     16  0.296881D-03 -0.434021D-03  0.142834D-03  0.144071D-02  0.150151D-03
     17  0.101446D-01  0.466958D-02 -0.208242D-02 -0.785940D-02  0.571821D-03
     18 -0.235871D-02 -0.327836D-02 -0.385428D-02  0.740481D-02 -0.370030D-02
                6             7             8             9            10 
      6  0.227327D+00
      7  0.780275D-02  0.473275D-01
      8  0.173527D-01  0.913314D-02  0.114759D+00
      9 -0.181052D-01  0.169167D-01  0.129774D+00  0.286806D+00
     10  0.774764D-01 -0.257832D-01 -0.761324D-02 -0.169596D-01  0.268097D+00
     11  0.129701D+00 -0.131122D-01 -0.113236D+00 -0.119563D+00 -0.425457D-01
     12 -0.215153D+00 -0.272969D-01 -0.120199D+00 -0.271323D+00 -0.410850D-01
     13 -0.959512D-02  0.119582D-01 -0.109293D-02 -0.369446D-02 -0.484226D-01
     14 -0.307751D-02  0.203424D-02 -0.711410D-03  0.312508D-02 -0.142436D-01
     15  0.491717D-02  0.223154D-02  0.349804D-02  0.380800D-02 -0.223314D-01
     16  0.191681D-03 -0.393098D-01 -0.161775D-02  0.169788D-02 -0.340330D-01
     17 -0.516539D-02 -0.826540D-02 -0.128012D-03 -0.349076D-02 -0.985152D-03
     18 -0.828860D-03 -0.108009D-01 -0.425305D-02 -0.454361D-02 -0.999485D-03
               11            12            13            14            15 
     11  0.586646D+00
     12 -0.386893D-01  0.541786D+00
     13  0.110294D-01  0.253056D-01  0.789366D-01
     14 -0.566321D-02  0.695558D-02 -0.834821D-01  0.187063D+00
     15  0.406096D-02  0.184021D-02 -0.166120D+00  0.356447D+00  0.693809D+00
     16 -0.209974D-01 -0.388129D-01 -0.440174D-02  0.102401D+00  0.194180D+00
     17 -0.219005D-01  0.921690D-02  0.864682D-01 -0.183730D+00 -0.365310D+00
     18  0.115260D-01 -0.504533D-02  0.164135D+00 -0.367129D+00 -0.705901D+00
               16            17            18 
     16  0.760133D-01
     17 -0.795007D-01  0.200520D+00
     18 -0.157378D+00  0.366832D+00  0.720174D+00
 Leave Link  716 at Tue Jan  7 19:27:22 2025, MaxMem=   104857600 cpu:               0.0 elap:               0.0
 (Enter /opt/g16/l123.exe)
 IRC-IRC-IRC-IRC-IRC-IRC-IRC-IRC-IRC-IRC-IRC-IRC-IRC-IRC-IRC-IRC-IRC-IRC
 Pt  6 Step number   1 out of a maximum of  10
 Using modified Bulirsch-Stoer corrector integration.
   Using distance weighted interpolants to fit PES.
 PreDWI: IReCr0= 2 IReCr1= 1 IReCr2= 1 IReCr3= 1
 Modified Bulirsch-Stoer Extrapolation Cycles:
    EPS =    0.000010000000000
    Cycle     1 NS=    48
      PEZero:  N= 2 I= 1 D=  4.26D-04 Err=  2.18D-06
[...]
 NAtoms=    6 NActive=    6 NUniq=    6 SFac= 1.00D+00 NAtFMM=   60 NAOKFM=F Big=F
 Integral buffers will be    131072 words long.
 Raffenetti 1 integral format.
 Two-electron integral symmetry is turned off.
 Leave Link  301 at Tue Jan  7 19:28:17 2025, MaxMem=   104857600 cpu:               0.0 elap:               0.0
 (Enter /opt/g16/l402.exe)
 External calculation of energy, first and second derivatives.
 Running external command "python3 -u ../pes/ch3cn_pes.py R"
         input file       "/home/jhli/scratch/g16/Gau-989806.EIn"
         output file      "/home/jhli/scratch/g16/Gau-989806.EOu"
         message file     "/home/jhli/scratch/g16/Gau-989806.EMs"
         fchk file        "/home/jhli/scratch/g16/Gau-989806.EFC"
         mat. el file     "/home/jhli/scratch/g16/Gau-989806.EUF"
 Recovered energy= -132.580680003     dipole=      0.000000000000      0.000000000000      0.000000000000
 NRF= 0 NRA=   0 NVA=   0 HaveQM=F NVQ=       0
 Convergence limit is  0.750E-04 MaxStp= 10000 StMxLn= 3.00D-04 StpMin= 1.00D-06.
 Convergence criteria             0.00011250 0.00007500 0.00045000 0.00030000
  Step  NS  ND Rises OKQ   Scale  Max. Force  RMS Force Max. Disp.  RMS Disp.     Energy   Flag
     1   0   0   F    T  1.00D+00 0.00000000 0.00000000 0.00000000 0.00000000 -132.5806800 ====
 Running external command "python3 -u ../pes/ch3cn_pes.py R"
         input file       "/home/jhli/scratch/g16/Gau-989806.EIn"
         output file      "/home/jhli/scratch/g16/Gau-989806.EOu"
         message file     "/home/jhli/scratch/g16/Gau-989806.EMs"
         fchk file        "/home/jhli/scratch/g16/Gau-989806.EFC"
         mat. el file     "/home/jhli/scratch/g16/Gau-989806.EUF"
 Recovered energy= -132.580680003     dipole=      0.000000000000      0.000000000000      0.000000000000
 Energy=    -132.580680     NIter=   0.
 Dipole moment=       0.000000       0.000000       0.000000
 Leave Link  402 at Tue Jan  7 19:28:17 2025, MaxMem=   104857600 cpu:               0.0 elap:               0.2
 (Enter /opt/g16/l716.exe)
 Dipole        = 0.00000000D+00 0.00000000D+00 0.00000000D+00
 -------------------------------------------------------------------
 Center     Atomic                   Forces (Hartrees/Bohr)
 Number     Number              X              Y              Z
 -------------------------------------------------------------------
      1        1           0.000051827    0.000006852    0.000026728
      2        1           0.000050418    0.000027850    0.000018877
      3        1          -0.000060403    0.000041333    0.000086078
      4        6          -0.000026526    0.000055318    0.000089283
      5        6           0.000091664   -0.000367783   -0.000698770
      6        7          -0.000118200    0.000229029    0.000477416
 -------------------------------------------------------------------
 Cartesian Forces:  Max     0.000698770 RMS     0.000230690
 Force constants in Cartesian coordinates: 
                1             2             3             4             5 
      1  0.870471D-01
      2 -0.952852D-01  0.310311D+00
      3 -0.720560D-02  0.177788D-01  0.458182D-01
      4  0.292125D-02  0.473439D-02 -0.106244D-01  0.717120D-01
      5 -0.865325D-02 -0.134457D-01  0.255065D-01  0.378074D-01  0.120058D+00
      6 -0.182246D-02 -0.250498D-02  0.290991D-02 -0.632638D-01 -0.125032D+00
      7  0.518781D-02  0.435150D-02  0.103427D-01  0.374145D-02  0.526039D-02
      8 -0.135134D-01 -0.119216D-01 -0.242582D-01  0.839416D-02  0.788261D-02
      9  0.505339D-03  0.733384D-03 -0.877603D-03 -0.109347D-01 -0.130824D-01
     10 -0.759759D-01  0.864590D-01  0.576898D-02 -0.621070D-01 -0.341052D-01
     11  0.864692D-01 -0.288868D+00 -0.162083D-01 -0.340895D-01 -0.114180D+00
     12  0.579381D-02 -0.162182D-01 -0.459596D-01  0.564053D-01  0.114727D+00
     13 -0.190328D-01  0.202498D-02  0.167150D-02 -0.155213D-01 -0.159585D-02
     14  0.350780D-01  0.465542D-02 -0.318095D-02 -0.190767D-01 -0.751684D-03
     15  0.275582D-02  0.184604D-04 -0.275249D-02  0.318633D-01 -0.265325D-02
     16 -0.146083D-03 -0.226762D-02  0.475510D-04 -0.744105D-03  0.127786D-02
     17 -0.408944D-02 -0.735735D-03  0.360786D-03  0.222904D-02  0.441360D-03
     18 -0.261433D-04  0.191967D-03  0.863196D-03 -0.344196D-02  0.542026D-03
                6             7             8             9            10 
      6  0.251276D+00
      7  0.694749D-02  0.102446D+00
      8  0.135786D-01  0.547304D-01  0.104772D+00
      9 -0.192262D-01  0.964939D-01  0.107303D+00  0.235533D+00
     10  0.563855D-01 -0.898212D-01 -0.496393D-01 -0.883832D-01  0.509349D+00
     11  0.114712D+00 -0.496804D-01 -0.100166D+00 -0.985116D-01 -0.100171D-02
     12 -0.234399D+00 -0.884613D-01 -0.985180D-01 -0.220290D+00  0.321672D-02
     13  0.364953D-02 -0.220520D-01 -0.951251D-03  0.438121D-03 -0.281163D+00
     14 -0.122214D-02 -0.165291D-01 -0.107623D-02  0.434488D-02 -0.139236D-02
     15 -0.846401D-03 -0.288749D-01  0.257615D-02  0.574068D-02  0.216325D-01
     16 -0.188228D-02  0.497718D-03  0.970741D-03  0.186454D-02 -0.283090D-03
     17  0.471569D-03  0.186592D-02  0.513612D-03 -0.789073D-03 -0.321322D-03
     18  0.285900D-03  0.354801D-02 -0.687990D-03 -0.877688D-03  0.138027D-02
               11            12            13            14            15 
     11  0.553728D+00
     12 -0.250247D-03  0.553338D+00
     13 -0.191983D-02  0.206421D-01  0.150255D+01
     14 -0.676641D-01  0.279125D-03  0.423166D-02  0.990092D-01
     15  0.339104D-03 -0.695610D-01 -0.151457D+00 -0.478867D-03  0.115286D+00
     16  0.222390D-03  0.240344D-02 -0.116474D+01 -0.231143D-02  0.124076D+00
     17  0.171503D-01 -0.199448D-04 -0.178938D-02 -0.341849D-01  0.198377D-03
     18 -0.817344D-04  0.168713D-01  0.125051D+00  0.257655D-03 -0.478786D-01
               16            17            18 
     16  0.116537D+01
     17  0.210503D-02  0.168227D-01
     18 -0.126506D+00 -0.221617D-03  0.307429D-01
 Leave Link  716 at Tue Jan  7 19:28:17 2025, MaxMem=   104857600 cpu:               0.0 elap:               0.0
 (Enter /opt/g16/l123.exe)
 IRC-IRC-IRC-IRC-IRC-IRC-IRC-IRC-IRC-IRC-IRC-IRC-IRC-IRC-IRC-IRC-IRC-IRC
 Pt199 Step number   1 out of a maximum of  10
 Using modified Bulirsch-Stoer corrector integration.
   Using distance weighted interpolants to fit PES.
 PreDWI: IReCr0= 2 IReCr1= 1 IReCr2= 1 IReCr3= 1
 Modified Bulirsch-Stoer Extrapolation Cycles:
    EPS =    0.000010000000000
    Cycle     1 NS=    48
      PEZero:  N= 2 I= 1 D=  4.27D-04 Err=  5.93D-06
    Cycle     2 NS=    64 Truncation Error =  0.000005927
 BS completed in    2 cycles and     112 integration steps.
 Maximum DWI energy   std dev =  0.000000503 at pt    32
 Maximum DWI gradient std dev =  0.034292809 at pt    37
 SUMMARY OF CORRECTOR INTEGRATION:
   Predictor End Point Energy =  -132.580680
   Old End Point Energy       =  -132.580680
   Corrected End Point Energy =  -132.580680
   Predictor End-Start Dist.  =     0.081896
   Old End-Start Dist.        =     0.081896
   New End-Start Dist.        =     0.081893
   New End-Old End Dist.      =     0.000509
 CORRECTOR INTEGRATION CONVERGENCE:
   Recorrection delta-x convergence threshold:    0.010000
   Delta-x Convergence Met
 Point Number:  99          Path Number:   2
                    CURRENT STRUCTURE
                Cartesian Coordinates (Ang):                
 ---------------------------------------------------------------------
 Center     Atomic                     Coordinates (Angstroms)
 Number     Number                        X           Y           Z
 ---------------------------------------------------------------------
      1          1                   -1.662021    1.011840    0.200372
      2          1                   -1.567775   -0.552200    1.031611
      3          1                   -1.736603   -0.494327   -0.733055
      4          6                   -1.288590   -0.008067    0.131451
      5          6                    0.167096    0.004018   -0.011282
      6          7                    1.318100    0.005765   -0.138804
 ---------------------------------------------------------------------
   CHANGE IN THE REACTION COORDINATE =    0.08189
   NET REACTION COORDINATE UP TO THIS POINT =    8.10636
  # OF POINTS ALONG THE PATH = 199
  # OF STEPS =   1

 Calculating another point on the path.
 Point Number100 in REVERSE path direction.
 Using LQA Reaction Path Following.
   LQA: T_Est iteration completed in    7 iterations.
 PES minimum detected within a second-order step.
 Calculation of REVERSE path complete.
 Reaction path calculation complete.
 
 Energies reported relative to the TS energy of        -132.478694
 --------------------------------------------------------------------------
    Summary of reaction path following
 --------------------------------------------------------------------------
                        Energy    RxCoord
   1                   -0.10199  -8.10636
   2                   -0.10195  -8.02446
   3                   -0.10187  -7.94257
   4                   -0.10177  -7.86069
   5                   -0.10163  -7.77880
   6                   -0.10145  -7.69692
   7                   -0.10124  -7.61503
   8                   -0.10100  -7.53315
   9                   -0.10073  -7.45126
  10                   -0.10042  -7.36938
  11                   -0.10008  -7.28750
  12                   -0.09970  -7.20561
  13                   -0.09929  -7.12373
  14                   -0.09885  -7.04185
  15                   -0.09837  -6.95996
  16                   -0.09786  -6.87808
  17                   -0.09731  -6.79619
  18                   -0.09674  -6.71431
  19                   -0.09612  -6.63243
  20                   -0.09548  -6.55054
  21                   -0.09480  -6.46866
  22                   -0.09408  -6.38678
  23                   -0.09334  -6.30489
  24                   -0.09256  -6.22301
  25                   -0.09174  -6.14113
  26                   -0.09090  -6.05924
  27                   -0.09002  -5.97736
  28                   -0.08911  -5.89548
  29                   -0.08816  -5.81359
  30                   -0.08719  -5.73171
  31                   -0.08618  -5.64983
  32                   -0.08514  -5.56794
  33                   -0.08407  -5.48606
  34                   -0.08296  -5.40418
  35                   -0.08183  -5.32229
  36                   -0.08067  -5.24041
  37                   -0.07947  -5.15853
  38                   -0.07825  -5.07664
  39                   -0.07700  -4.99476
  40                   -0.07572  -4.91288
  41                   -0.07441  -4.83099
  42                   -0.07307  -4.74911
  43                   -0.07171  -4.66723
  44                   -0.07032  -4.58534
  45                   -0.06890  -4.50346
  46                   -0.06746  -4.42158
  47                   -0.06600  -4.33969
  48                   -0.06451  -4.25781
  49                   -0.06300  -4.17593
  50                   -0.06146  -4.09405
  51                   -0.05991  -4.01216
  52                   -0.05833  -3.93028
  53                   -0.05673  -3.84840
  54                   -0.05512  -3.76651
  55                   -0.05348  -3.68463
  56                   -0.05183  -3.60275
  57                   -0.05016  -3.52086
  58                   -0.04848  -3.43898
  59                   -0.04679  -3.35710
  60                   -0.04508  -3.27522
  61                   -0.04337  -3.19333
  62                   -0.04165  -3.11145
  63                   -0.03992  -3.02957
  64                   -0.03818  -2.94769
  65                   -0.03645  -2.86580
  66                   -0.03472  -2.78392
  67                   -0.03300  -2.70204
  68                   -0.03128  -2.62016
  69                   -0.02957  -2.53828
  70                   -0.02788  -2.45639
  71                   -0.02620  -2.37451
  72                   -0.02455  -2.29263
  73                   -0.02293  -2.21075
  74                   -0.02133  -2.12886
  75                   -0.01977  -2.04698
  76                   -0.01825  -1.96510
  77                   -0.01677  -1.88322
  78                   -0.01534  -1.80133
  79                   -0.01396  -1.71945
  80                   -0.01263  -1.63757
  81                   -0.01136  -1.55569
  82                   -0.01015  -1.47381
  83                   -0.00901  -1.39192
  84                   -0.00793  -1.31004
  85                   -0.00692  -1.22816
  86                   -0.00598  -1.14628
  87                   -0.00511  -1.06440
  88                   -0.00431  -0.98252
  89                   -0.00358  -0.90064
  90                   -0.00293  -0.81875
  91                   -0.00234  -0.73687
  92                   -0.00183  -0.65499
  93                   -0.00138  -0.57311
  94                   -0.00100  -0.49123
  95                   -0.00069  -0.40935
  96                   -0.00043  -0.32747
  97                   -0.00024  -0.24560
  98                   -0.00011  -0.16372
  99                   -0.00003  -0.08186
 100                    0.00000   0.00000
 101                   -0.00002   0.08181
 102                   -0.00010   0.16368
 103                   -0.00022   0.24556
 104                   -0.00038   0.32743
 105                   -0.00058   0.40931
 106                   -0.00083   0.49119
 107                   -0.00111   0.57307
 108                   -0.00143   0.65495
 109                   -0.00179   0.73683
 110                   -0.00218   0.81871
 111                   -0.00261   0.90060
 112                   -0.00306   0.98248
 113                   -0.00355   1.06436
 114                   -0.00407   1.14624
 115                   -0.00461   1.22812
 116                   -0.00519   1.31000
 117                   -0.00579   1.39188
 118                   -0.00642   1.47377
 119                   -0.00708   1.55565
 120                   -0.00776   1.63753
 121                   -0.00846   1.71941
 122                   -0.00919   1.80129
 123                   -0.00995   1.88317
 124                   -0.01072   1.96505
 125                   -0.01151   2.04694
 126                   -0.01233   2.12882
 127                   -0.01316   2.21070
 128                   -0.01401   2.29258
 129                   -0.01488   2.37446
 130                   -0.01576   2.45634
 131                   -0.01665   2.53822
 132                   -0.01756   2.62011
 133                   -0.01848   2.70199
 134                   -0.01941   2.78387
 135                   -0.02035   2.86575
 136                   -0.02130   2.94763
 137                   -0.02226   3.02951
 138                   -0.02322   3.11140
 139                   -0.02419   3.19328
 140                   -0.02516   3.27516
 141                   -0.02613   3.35704
 142                   -0.02710   3.43893
 143                   -0.02808   3.52081
 144                   -0.02905   3.60269
 145                   -0.03002   3.68457
 146                   -0.03099   3.76646
 147                   -0.03196   3.84834
 148                   -0.03292   3.93022
 149                   -0.03387   4.01210
 150                   -0.03482   4.09399
 151                   -0.03576   4.17587
 152                   -0.03669   4.25775
 153                   -0.03761   4.33964
 154                   -0.03853   4.42152
 155                   -0.03943   4.50340
 156                   -0.04032   4.58528
 157                   -0.04120   4.66717
 158                   -0.04206   4.74905
 159                   -0.04291   4.83093
 160                   -0.04375   4.91282
 161                   -0.04458   4.99470
 162                   -0.04539   5.07658
 163                   -0.04618   5.15847
 164                   -0.04696   5.24035
 165                   -0.04772   5.32223
 166                   -0.04847   5.40412
 167                   -0.04919   5.48600
 168                   -0.04991   5.56788
 169                   -0.05060   5.64977
 170                   -0.05128   5.73165
 171                   -0.05194   5.81353
 172                   -0.05258   5.89542
 173                   -0.05320   5.97730
 174                   -0.05380   6.05919
 175                   -0.05439   6.14107
 176                   -0.05496   6.22295
 177                   -0.05551   6.30484
 178                   -0.05604   6.38672
 179                   -0.05655   6.46860
 180                   -0.05705   6.55049
 181                   -0.05752   6.63237
 182                   -0.05798   6.71425
 183                   -0.05841   6.79614
 184                   -0.05883   6.87802
 185                   -0.05924   6.95991
 186                   -0.05962   7.04179
 187                   -0.05998   7.12367
 188                   -0.06033   7.20556
 189                   -0.06066   7.28744
 190                   -0.06096   7.36932
 191                   -0.06126   7.45121
 192                   -0.06153   7.53309
 193                   -0.06178   7.61498
 194                   -0.06202   7.69686
 195                   -0.06224   7.77874
 196                   -0.06244   7.86063
 197                   -0.06262   7.94251
 198                   -0.06279   8.02440
 199                   -0.06294   8.10628
 200                   -0.06307   8.18817
 --------------------------------------------------------------------------
 
 Total number of points:                  199
 Total number of gradient calculations:   200
 Total number of Hessian calculations:    200
 IRC-IRC-IRC-IRC-IRC-IRC-IRC-IRC-IRC-IRC-IRC-IRC-IRC-IRC-IRC-IRC-IRC-IRC
 Leave Link  123 at Tue Jan  7 19:28:17 2025, MaxMem=   104857600 cpu:               0.0 elap:               0.0
 (Enter /opt/g16/l202.exe)
                          Input orientation:                          
 ---------------------------------------------------------------------
 Center     Atomic      Atomic             Coordinates (Angstroms)
 Number     Number       Type             X           Y           Z
 ---------------------------------------------------------------------
      1          1           0       -1.662075    1.011853    0.200404
      2          1           0       -1.567832   -0.552204    1.031632
      3          1           0       -1.736655   -0.494357   -0.733123
      4          6           0       -1.288617   -0.008069    0.131452
      5          6           0        0.167073    0.004019   -0.011279
      6          7           0        1.318154    0.005767   -0.138805
 ---------------------------------------------------------------------
                    Distance matrix (angstroms):
                    1          2          3          4          5
     1  H    0.000000
     2  H    1.773724   0.000000
     3  H    1.773613   1.773756   0.000000
     4  C    1.088331   1.088287   1.088442   0.000000
     5  C    2.099124   2.099272   2.096096   1.462721   0.000000
     6  N    3.163706   3.163885   3.152014   2.620779   1.158125
                    6
     6  N    0.000000
 Symmetry turned off by external request.
 Stoichiometry    C2H3N
 Framework group  C1[X(C2H3N)]
 Deg. of freedom    12
 Full point group                 C1      NOp   1
 Rotational constants (GHZ):         159.3605709           9.1841179           9.1840095
 Leave Link  202 at Tue Jan  7 19:28:17 2025, MaxMem=   104857600 cpu:               0.0 elap:               0.0
 (Enter /opt/g16/l601.exe)
 Leave Link  601 at Tue Jan  7 19:28:17 2025, MaxMem=   104857600 cpu:               0.0 elap:               0.0
 (Enter /opt/g16/l9999.exe)

 This type of calculation cannot be archived.


 MAN IS THE MEASURE OF ALL THINGS.
  -- PROTAGORAS (5TH CENTURY B.C.)
 Job cpu time:       0 days  0 hours  0 minutes 14.0 seconds.
 Elapsed time:       0 days  0 hours  0 minutes 55.3 seconds.
 File lengths (MBytes):  RWF=      6 Int=      0 D2E=      0 Chk=      2 Scr=      1
 Normal termination of Gaussian 16 at Tue Jan  7 19:28:17 2025.
