 Entering Gaussian System, Link 0=g16
 Initial command:
 /opt/g16/l1.exe "/home/jh-li/scratch/g16/Gau-36134.inp" -scrdir="/home/jh-li/scratch/g16/"
 Entering Link 1 = /opt/g16/l1.exe PID=     36137.
  
 Copyright (c) 1988-2019, Gaussian, Inc.  All Rights Reserved.
  
 This is part of the Gaussian(R) 16 program.  It is based on
 the Gaussian(R) 09 system (copyright 2009, Gaussian, Inc.),
 the Gaussian(R) 03 system (copyright 2003, Gaussian, Inc.),
 the Gaussian(R) 98 system (copyright 1998, Gaussian, Inc.),
 the Gaussian(R) 94 system (copyright 1995, Gaussian, Inc.),
 the Gaussian 92(TM) system (copyright 1992, Gaussian, Inc.),
 the Gaussian 90(TM) system (copyright 1990, Gaussian, Inc.),
 the Gaussian 88(TM) system (copyright 1988, Gaussian, Inc.),
 the Gaussian 86(TM) system (copyright 1986, Carnegie Mellon
 University), and the Gaussian 82(TM) system (copyright 1983,
 Carnegie Mellon University). Gaussian is a federally registered
 trademark of Gaussian, Inc.
  
 This software contains proprietary and confidential information,
 including trade secrets, belonging to Gaussian, Inc.
  
 This software is provided under written license and may be
 used, copied, transmitted, or stored only in accord with that
 written license.
  
 The following legend is applicable only to US Government
 contracts under FAR:
  
                    RESTRICTED RIGHTS LEGEND
  
 Use, reproduction and disclosure by the US Government is
 subject to restrictions as set forth in subparagraphs (a)
 and (c) of the Commercial Computer Software - Restricted
 Rights clause in FAR 52.227-19.
  
 Gaussian, Inc.
 340 Quinnipiac St., Bldg. 40, Wallingford CT 06492
  
  
 ---------------------------------------------------------------
 Warning -- This program may not be used in any manner that
 competes with the business of Gaussian, Inc. or will provide
 assistance to any competitor of Gaussian, Inc.  The licensee
 of this program is prohibited from giving any competitor of
 Gaussian, Inc. access to this program.  By using this program,
 the user acknowledges that Gaussian, Inc. is engaged in the
 business of creating and licensing software in the field of
 computational chemistry and represents and warrants to the
 licensee that it is not a competitor of Gaussian, Inc. and that
 it will not use this program in any manner prohibited above.
 ---------------------------------------------------------------
  

 Cite this work as:
 Gaussian 16, Revision C.01,
 M. J. Frisch, G. W. Trucks, H. B. Schlegel, G. E. Scuseria, 
 M. A. Robb, J. R. Cheeseman, G. Scalmani, V. Barone, 
 G. A. Petersson, H. Nakatsuji, X. Li, M. Caricato, A. V. Marenich, 
 J. Bloino, B. G. Janesko, R. Gomperts, B. Mennucci, H. P. Hratchian, 
 J. V. Ortiz, A. F. Izmaylov, J. L. Sonnenberg, D. Williams-Young, 
 F. Ding, F. Lipparini, F. Egidi, J. Goings, B. Peng, A. Petrone, 
 T. Henderson, D. Ranasinghe, V. G. Zakrzewski, J. Gao, N. Rega, 
 G. Zheng, W. Liang, M. Hada, M. Ehara, K. Toyota, R. Fukuda, 
 J. Hasegawa, M. Ishida, T. Nakajima, Y. Honda, O. Kitao, H. Nakai, 
 T. Vreven, K. Throssell, J. A. Montgomery, Jr., J. E. Peralta, 
 F. Ogliaro, M. J. Bearpark, J. J. Heyd, E. N. Brothers, K. N. Kudin, 
 V. N. Staroverov, T. A. Keith, R. Kobayashi, J. Normand, 
 K. Raghavachari, A. P. Rendell, J. C. Burant, S. S. Iyengar, 
 J. Tomasi, M. Cossi, J. M. Millam, M. Klene, C. Adamo, R. Cammi, 
 J. W. Ochterski, R. L. Martin, K. Morokuma, O. Farkas, 
 J. B. Foresman, and D. J. Fox, Gaussian, Inc., Wallingford CT, 2019.
 
 ******************************************
 Gaussian 16:  ES64L-G16RevC.01  3-Jul-2019
                 6-Mar-2024 
 ******************************************
 %nproc=1
 Will use up to    1 processors via shared memory.
 %oldchk=ts-opt-freq.chk
 Copying data from "ts-opt-freq.chk" to current chk file "/home/jh-li/scratch/g16/Gau-36137.chk"
 IOpt=  2 FromEx=T IUOpen= 4 IOptOp= 5 NList=   0 IFRang= 0 IUIn= 4 IUOut= 2.
 ----------------------------------------------------------------------
 #p external="python3 -u ../pes/h4o_pes.py" irc=(calcall,stepsize=3,max
 point=1000) geom=allcheck
 ----------------------------------------------------------------------
 1/6=10,10=4,18=10,26=1,29=7,38=1,39=3,42=1000,44=3,71=1,172=1/1,23;
 2/12=2,29=1,40=1/2;
 3/11=9,14=-4,25=1,30=1,41=9900000,43=2,71=2,140=1/1;
 4/20=17,22=1002,24=3,113=1,114=1/2;
 6/7=2,8=2,9=2,10=2,18=1/1;
 7/25=1,44=-1/16;
 1/6=10,10=4,18=10,26=1,39=3,42=1000,44=3,71=1/23(2);
 2/29=1/2;
 99/5=20/99;
 2/29=1/2;
 3/11=9,14=-2,25=1,30=1,41=9900000,43=2,71=2,140=1/1;
 4/16=2,20=17,22=1002,24=3,113=1,114=1/2;
 7/25=1,44=-1/16;
 1/6=10,10=4,18=10,26=1,39=3,42=1000,44=3,71=1/23(-4);
 2/29=1/2;
 6/7=2,8=2,9=2,10=2,18=1/1;
 99/5=20/99;
 Leave Link    1 at Wed Mar  6 11:35:21 2024, MaxMem=   104857600 cpu:               0.0 elap:               0.0
 (Enter /opt/g16/l101.exe)
 Structure from the checkpoint file:  "/home/jh-li/scratch/g16/Gau-36137.chk"
 -------------------
 Title Card Required
 -------------------
 Charge =  0 Multiplicity = 1
 Redundant internal coordinates found in file.  (old form).
 H,0,0.5483704265,-0.1666795785,-0.2681554658
 H,0,-1.0847016756,0.4116605782,-0.5882783553
 H,0,-1.1533672713,-0.4104767763,0.1172615164
 H,0,-2.0203296434,-0.2395617275,-0.6030634168
 O,0,-0.1735048362,0.2869545041,0.1902017215
 Recover connectivity data from disk.
 ITRead=  0  0  0  0  0
 MicOpt= -1 -1 -1 -1 -1
 NAtoms=      5 NQM=        5 NQMF=       0 NMMI=      0 NMMIF=      0
                NMic=       0 NMicF=      0.
                    Isotopes and Nuclear Properties:
 (Nuclear quadrupole moments (NQMom) in fm**2, nuclear magnetic moments (NMagM)
  in nuclear magnetons)

  Atom         1           2           3           4           5
 IAtWgt=           1           1           1           1          16
 AtmWgt=   1.0078250   1.0078250   1.0078250   1.0078250  15.9949146
 NucSpn=           1           1           1           1           0
 AtZEff=   1.0000000   1.0000000   1.0000000   1.0000000   5.6000000
 NQMom=    0.0000000   0.0000000   0.0000000   0.0000000   0.0000000
 NMagM=    2.7928460   2.7928460   2.7928460   2.7928460   0.0000000
 AtZNuc=   1.0000000   1.0000000   1.0000000   1.0000000   8.0000000
 Leave Link  101 at Wed Mar  6 11:35:21 2024, MaxMem=   104857600 cpu:               0.1 elap:               0.1
 (Enter /opt/g16/l123.exe)
 IRC-IRC-IRC-IRC-IRC-IRC-IRC-IRC-IRC-IRC-IRC-IRC-IRC-IRC-IRC-IRC-IRC-IRC
 ------------------------------------------------------------------------
 INPUT DATA FOR L123
 ------------------------------------------------------------------------
 GENERAL PARAMETERS:
 Follow reaction path in both directions.
 Maximum points per path      =1000
 Step size                    =   0.030 bohr
 Integration scheme           = HPC                                 
    Redo corrector integration= Yes                                 
    DWI Weight Power          =  2
    DWI will use Hessian update vectors when possible.
    Max correction cycles     =  10
 Initial Hessian              = CalcFC
 Hessian evaluation           = Analytic at all predictor steps
                              = Update at all corrector steps
 Hessian updating method      = Bofill                              
 ------------------------------------------------------------------------
 IRC-IRC-IRC-IRC-IRC-IRC-IRC-IRC-IRC-IRC-IRC-IRC-IRC-IRC-IRC-IRC-IRC-IRC
 Leave Link  123 at Wed Mar  6 11:35:21 2024, MaxMem=   104857600 cpu:               0.0 elap:               0.0
 (Enter /opt/g16/l202.exe)
                          Input orientation:                          
 ---------------------------------------------------------------------
 Center     Atomic      Atomic             Coordinates (Angstroms)
 Number     Number       Type             X           Y           Z
 ---------------------------------------------------------------------
      1          1           0        0.548370   -0.166680   -0.268155
      2          1           0       -1.084702    0.411661   -0.588278
      3          1           0       -1.153367   -0.410477    0.117262
      4          1           0       -2.020330   -0.239562   -0.603063
      5          8           0       -0.173505    0.286955    0.190202
 ---------------------------------------------------------------------
                    Distance matrix (angstroms):
                    1          2          3          4          5
     1  H    0.000000
     2  H    1.761783   0.000000
     3  H    1.761787   1.085547   0.000000
     4  H    2.591466   1.140048   1.140045   0.000000
     5  O    0.967977   1.204933   1.204932   2.077800   0.000000
 Symmetry turned off by external request.
 Stoichiometry    H4O
 Framework group  C1[X(H4O)]
 Deg. of freedom     9
 Full point group                 C1      NOp   1
 Rotational constants (GHZ):         380.0481823          75.6799166          74.1025795
 Leave Link  202 at Wed Mar  6 11:35:21 2024, MaxMem=   104857600 cpu:               0.0 elap:               0.0
 (Enter /opt/g16/l301.exe)
 Standard basis: STO-3G (5D, 7F)
 Ernie: Thresh=  0.10000D-02 Tol=  0.10000D-05 Strict=F.
     9 basis functions,    27 primitive gaussians,     9 cartesian basis functions
     6 alpha electrons        6 beta electrons
       nuclear repulsion energy        15.6584837990 Hartrees.
 IExCor=    0 DFT=F Ex=HF Corr=None ExCW=0 ScaHFX=  1.000000
 ScaDFX=  1.000000  1.000000  1.000000  1.000000 ScalE2=  1.000000  1.000000
 IRadAn=      5 IRanWt=     -1 IRanGd=            0 ICorTp=0 IEmpDi=  4
 NAtoms=    5 NActive=    5 NUniq=    5 SFac= 1.00D+00 NAtFMM=   60 NAOKFM=F Big=F
 Integral buffers will be    131072 words long.
 Raffenetti 1 integral format.
 Two-electron integral symmetry is turned off.
 Leave Link  301 at Wed Mar  6 11:35:21 2024, MaxMem=   104857600 cpu:               0.0 elap:               0.0
 (Enter /opt/g16/l402.exe)
 External calculation of energy, first and second derivatives.
 Running external command "python3 -u ../pes/h4o_pes.py R"
         input file       "/home/jh-li/scratch/g16/Gau-36137.EIn"
         output file      "/home/jh-li/scratch/g16/Gau-36137.EOu"
         message file     "/home/jh-li/scratch/g16/Gau-36137.EMs"
         fchk file        "/home/jh-li/scratch/g16/Gau-36137.EFC"
         mat. el file     "/home/jh-li/scratch/g16/Gau-36137.EUF"
 Recovered energy= -77.4216730310     dipole=      0.000000000000      0.000000000000      0.000000000000
 NRF= 0 NRA=   0 NVA=   0 HaveQM=F NVQ=       0
 Convergence limit is  0.750E-04 MaxStp= 10000 StMxLn= 3.00D-04 StpMin= 1.00D-06.
 Convergence criteria             0.00011250 0.00007500 0.00045000 0.00030000
  Step  NS  ND Rises OKQ   Scale  Max. Force  RMS Force Max. Disp.  RMS Disp.     Energy   Flag
     1   0   0   F    T  1.00D+00 0.00000000 0.00000000 0.00000000 0.00000000  -77.4216730 ====
 Running external command "python3 -u ../pes/h4o_pes.py R"
         input file       "/home/jh-li/scratch/g16/Gau-36137.EIn"
         output file      "/home/jh-li/scratch/g16/Gau-36137.EOu"
         message file     "/home/jh-li/scratch/g16/Gau-36137.EMs"
         fchk file        "/home/jh-li/scratch/g16/Gau-36137.EFC"
         mat. el file     "/home/jh-li/scratch/g16/Gau-36137.EUF"
 Recovered energy= -77.4216730310     dipole=      0.000000000000      0.000000000000      0.000000000000
 Energy=    -77.4216730     NIter=   0.
 Dipole moment=       0.000000       0.000000       0.000000
 Leave Link  402 at Wed Mar  6 11:35:22 2024, MaxMem=   104857600 cpu:               0.0 elap:               0.4
 (Enter /opt/g16/l601.exe)
 Leave Link  601 at Wed Mar  6 11:35:22 2024, MaxMem=   104857600 cpu:               0.0 elap:               0.0
 (Enter /opt/g16/l716.exe)
 Dipole        = 0.00000000D+00 0.00000000D+00 0.00000000D+00
 -------------------------------------------------------------------
 Center     Atomic                   Forces (Hartrees/Bohr)
 Number     Number              X              Y              Z
 -------------------------------------------------------------------
      1        1           0.000009214    0.000042460    0.000046894
      2        1          -0.000004113   -0.000001081    0.000003270
      3        1          -0.000004231    0.000001567   -0.000001432
      4        1          -0.000003773    0.000008826    0.000010587
      5        8          -0.000009265   -0.000052979   -0.000060961
 -------------------------------------------------------------------
 Cartesian Forces:  Max     0.000060961 RMS     0.000027020
 Force constants in Cartesian coordinates: 
                1             2             3             4             5 
      1  0.300193D+00
      2 -0.171349D+00  0.126466D+00
      3 -0.172759D+00  0.103114D+00  0.127027D+00
      4 -0.777830D-02  0.351484D-02 -0.285969D-02 -0.883212D-01
      5  0.456818D-02 -0.564562D-02  0.123373D-01 -0.516379D-01  0.650263D-01
      6  0.963697D-02 -0.992430D-02  0.144633D-01 -0.418356D-01 -0.578789D-01
      7 -0.784420D-02 -0.255327D-02  0.211644D-02  0.137001D+00  0.755022D-03
      8  0.114156D-01  0.129476D-01 -0.637526D-02  0.544390D-01 -0.270340D-01
      9  0.712638D-02  0.144242D-01 -0.406721D-02  0.277789D-01  0.348951D-01
     10 -0.482102D-02 -0.257259D-02 -0.397099D-02 -0.982382D-02 -0.183974D-03
     11 -0.535085D-02  0.136926D-02 -0.495040D-02  0.509706D-01 -0.151031D-01
     12 -0.720754D-02 -0.467990D-02 -0.984319D-03 -0.331999D-01 -0.581735D-02
     13 -0.279757D+00  0.172957D+00  0.177468D+00 -0.310476D-01  0.464980D-01
     14  0.160716D+00 -0.135140D+00 -0.104131D+00 -0.572861D-01 -0.172499D-01
     15  0.163204D+00 -0.102938D+00 -0.136444D+00  0.501136D-01  0.164610D-01
                6             7             8             9            10 
      6  0.764418D-01
      7  0.768897D-01 -0.818867D-01
      8  0.713349D-01 -0.117955D-01  0.978879D-01
      9 -0.332129D-02 -0.729387D-01 -0.490910D-01  0.371566D-01
     10  0.804367D-02 -0.170855D-01  0.403495D-02 -0.260408D-03  0.997915D-01
     11  0.233613D-01 -0.421042D-01 -0.377326D-01 -0.132815D-01  0.184184D-01
     12 -0.390684D-01  0.468266D-01  0.154100D-01 -0.917405D-02  0.314676D-01
     13 -0.527267D-01 -0.301547D-01 -0.580894D-01  0.382967D-01 -0.680631D-01
     14 -0.268887D-01  0.556975D-01 -0.460687D-01  0.130506D-01 -0.196979D-01
     15 -0.485173D-01 -0.528913D-01 -0.312714D-01 -0.205954D-01 -0.352803D-01
               11            12            13            14            15 
     11  0.125971D-01
     12  0.199917D-01  0.233341D-01
     13 -0.219311D-01 -0.378832D-01  0.408973D+00
     14  0.388685D-01 -0.249078D-01 -0.139434D+00  0.159600D+00
     15 -0.251238D-01  0.258897D-01 -0.125156D+00  0.142879D+00  0.179679D+00
 Leave Link  716 at Wed Mar  6 11:35:22 2024, MaxMem=   104857600 cpu:               0.0 elap:               0.0
 (Enter /opt/g16/l123.exe)
 IRC-IRC-IRC-IRC-IRC-IRC-IRC-IRC-IRC-IRC-IRC-IRC-IRC-IRC-IRC-IRC-IRC-IRC
          ******** Start new reaction path calculation ********
 Current Structure is TS -> form Hessian eigenvectors.
                            Diagonalizing Hessian.
 Supplied step size of   0.0300 bohr.
    Integration on MW PES will use step size of   0.0302 sqrt(amu)*bohr.
 Point Number:   0          Path Number:   1
 Calculating another point on the path.
 Point Number  1 in FORWARD path direction.
 Using LQA Reaction Path Following.
 IRC-IRC-IRC-IRC-IRC-IRC-IRC-IRC-IRC-IRC-IRC-IRC-IRC-IRC-IRC-IRC-IRC-IRC
 Leave Link  123 at Wed Mar  6 11:35:22 2024, MaxMem=   104857600 cpu:               0.0 elap:               0.0
 (Enter /opt/g16/l202.exe)
                          Input orientation:                          
 ---------------------------------------------------------------------
 Center     Atomic      Atomic             Coordinates (Angstroms)
 Number     Number       Type             X           Y           Z
 ---------------------------------------------------------------------
      1          1           0        0.873684   -0.375158   -0.352802
      2          1           0       -0.749829    0.204862   -0.668366
      3          1           0       -0.837750   -0.622280    0.029467
      4          1           0       -1.695348   -0.452019   -0.684295
      5          8           0        0.151804    0.078421    0.105603
 ---------------------------------------------------------------------
                    Distance matrix (angstroms):
                    1          2          3          4          5
     1  H    0.000000
     2  H    1.752655   0.000000
     3  H    1.770934   1.085756   0.000000
     4  H    2.591471   1.151414   1.128681   0.000000
     5  O    0.967977   1.194972   1.214906   2.077806   0.000000
 Symmetry turned off by external request.
 Stoichiometry    H4O
 Framework group  C1[X(H4O)]
 Deg. of freedom     9
 Full point group                 C1      NOp   1
 Rotational constants (GHZ):         380.0687581          75.6771613          74.0988932
 Leave Link  202 at Wed Mar  6 11:35:22 2024, MaxMem=   104857600 cpu:               0.0 elap:               0.0
 (Enter /opt/g16/l301.exe)
 Standard basis: STO-3G (5D, 7F)
 Ernie: Thresh=  0.10000D-02 Tol=  0.10000D-05 Strict=F.
     9 basis functions,    27 primitive gaussians,     9 cartesian basis functions
     6 alpha electrons        6 beta electrons
       nuclear repulsion energy        15.6589318883 Hartrees.
 IExCor=    0 DFT=F Ex=HF Corr=None ExCW=0 ScaHFX=  1.000000
 ScaDFX=  1.000000  1.000000  1.000000  1.000000 ScalE2=  1.000000  1.000000
 IRadAn=      5 IRanWt=     -1 IRanGd=            0 ICorTp=0 IEmpDi=  4
 NAtoms=    5 NActive=    5 NUniq=    5 SFac= 1.00D+00 NAtFMM=   60 NAOKFM=F Big=F
 Integral buffers will be    131072 words long.
 Raffenetti 1 integral format.
 Two-electron integral symmetry is turned off.
 Leave Link  301 at Wed Mar  6 11:35:22 2024, MaxMem=   104857600 cpu:               0.1 elap:               0.0
 (Enter /opt/g16/l402.exe)
 External calculation of energy, first and second derivatives.
 Running external command "python3 -u ../pes/h4o_pes.py R"
         input file       "/home/jh-li/scratch/g16/Gau-36137.EIn"
         output file      "/home/jh-li/scratch/g16/Gau-36137.EOu"
         message file     "/home/jh-li/scratch/g16/Gau-36137.EMs"
         fchk file        "/home/jh-li/scratch/g16/Gau-36137.EFC"
         mat. el file     "/home/jh-li/scratch/g16/Gau-36137.EUF"
 Recovered energy= -77.4218161469     dipole=      0.000000000000      0.000000000000      0.000000000000
 NRF= 0 NRA=   0 NVA=   0 HaveQM=F NVQ=       0
 Convergence limit is  0.750E-04 MaxStp= 10000 StMxLn= 3.00D-04 StpMin= 1.00D-06.
 Convergence criteria             0.00011250 0.00007500 0.00045000 0.00030000
  Step  NS  ND Rises OKQ   Scale  Max. Force  RMS Force Max. Disp.  RMS Disp.     Energy   Flag
     1   0   0   F    T  1.00D+00 0.00000000 0.00000000 0.00000000 0.00000000  -77.4218161 ====
 Running external command "python3 -u ../pes/h4o_pes.py R"
         input file       "/home/jh-li/scratch/g16/Gau-36137.EIn"
         output file      "/home/jh-li/scratch/g16/Gau-36137.EOu"
         message file     "/home/jh-li/scratch/g16/Gau-36137.EMs"
         fchk file        "/home/jh-li/scratch/g16/Gau-36137.EFC"
         mat. el file     "/home/jh-li/scratch/g16/Gau-36137.EUF"
 Recovered energy= -77.4218161469     dipole=      0.000000000000      0.000000000000      0.000000000000
 Energy=    -77.4218161     NIter=   0.
 Dipole moment=       0.000000       0.000000       0.000000
 Leave Link  402 at Wed Mar  6 11:35:22 2024, MaxMem=   104857600 cpu:               0.0 elap:               0.4
 (Enter /opt/g16/l716.exe)
 Dipole        = 0.00000000D+00 0.00000000D+00 0.00000000D+00
 -------------------------------------------------------------------
 Center     Atomic                   Forces (Hartrees/Bohr)
 Number     Number              X              Y              Z
 -------------------------------------------------------------------
      1        1           0.000023266    0.000244845   -0.000112856
      2        1           0.005665099    0.001184464    0.002537370
      3        1          -0.005805289   -0.001792867   -0.002060553
      4        1          -0.000155766   -0.002159216    0.001889797
      5        8           0.000260522    0.002521536   -0.002255232
 -------------------------------------------------------------------
 Cartesian Forces:  Max     0.005805289 RMS     0.002594087
 Force constants in Cartesian coordinates: 
                1             2             3             4             5 
      1  0.300071D+00
      2 -0.172100D+00  0.125886D+00
      3 -0.172134D+00  0.102941D+00  0.127720D+00
      4 -0.809579D-02  0.359181D-02 -0.375498D-02 -0.838411D-01
      5  0.495112D-02 -0.585786D-02  0.126917D-01 -0.512578D-01  0.660550D-01
      6  0.104074D-01 -0.100473D-01  0.146698D-01 -0.405202D-01 -0.576716D-01
      7 -0.752048D-02 -0.176008D-02  0.223031D-02  0.136403D+00 -0.332893D-03
      8  0.106444D-01  0.127522D-01 -0.635881D-02  0.533645D-01 -0.275691D-01
      9  0.663450D-02  0.141026D-01 -0.392133D-02  0.285200D-01  0.346854D-01
     10 -0.481073D-02 -0.262282D-02 -0.391205D-02 -0.106623D-01 -0.475163D-03
     11 -0.541989D-02  0.134677D-02 -0.482327D-02  0.499420D-01 -0.136749D-01
     12 -0.714061D-02 -0.479673D-02 -0.968686D-03 -0.337842D-01 -0.593601D-02
     13 -0.279652D+00  0.172888D+00  0.177566D+00 -0.337745D-01  0.471129D-01
     14  0.161924D+00 -0.134131D+00 -0.104455D+00 -0.556402D-01 -0.189595D-01
     15  0.162234D+00 -0.102204D+00 -0.137505D+00  0.495363D-01  0.162278D-01
                6             7             8             9            10 
      6  0.783955D-01
      7  0.773941D-01 -0.849677D-01
      8  0.710584D-01 -0.122244D-01  0.964488D-01
      9 -0.266402D-02 -0.734047D-01 -0.493052D-01  0.360736D-01
     10  0.677417D-02 -0.163442D-01  0.499234D-02  0.353269D-03  0.999589D-01
     11  0.228007D-01 -0.415915D-01 -0.391516D-01 -0.130777D-01  0.192041D-01
     12 -0.378094D-01  0.478105D-01  0.158797D-01 -0.104922D-01  0.308463D-01
     13 -0.540467D-01 -0.275401D-01 -0.567728D-01  0.379007D-01 -0.681435D-01
     14 -0.261356D-01  0.559087D-01 -0.424802D-01  0.135923D-01 -0.210996D-01
     15 -0.525941D-01 -0.540271D-01 -0.312673D-01 -0.189972D-01 -0.340622D-01
               11            12            13            14            15 
     11  0.131160D-01
     12  0.200705D-01  0.228811D-01
     13 -0.221306D-01 -0.377295D-01  0.409060D+00
     14  0.383629D-01 -0.252209D-01 -0.141096D+00  0.157218D+00
     15 -0.249729D-01  0.263862D-01 -0.123691D+00  0.142222D+00  0.182722D+00
 Leave Link  716 at Wed Mar  6 11:35:22 2024, MaxMem=   104857600 cpu:               0.0 elap:               0.0
 (Enter /opt/g16/l123.exe)
 IRC-IRC-IRC-IRC-IRC-IRC-IRC-IRC-IRC-IRC-IRC-IRC-IRC-IRC-IRC-IRC-IRC-IRC
 Pt  1 Step number   1 out of a maximum of  10
 Using modified Bulirsch-Stoer corrector integration.
   Using distance weighted interpolants to fit PES.
 PreDWI: IReCr0= 2 IReCr1= 1 IReCr2= 1 IReCr3= 1
 Modified Bulirsch-Stoer Extrapolation Cycles:
    EPS =    0.000010000000000
    Cycle     1 NS=    48
      PEZero:  N= 2 I= 1 D=  7.87D-05 Err=  1.45D-04
    Cycle     2 NS=    64 Truncation Error =  0.000144779
      PEZero:  N= 3 I= 2 D=  7.87D-05 Err=  9.65D-05
      PEZero:  N= 3 I= 1 D=  1.57D-04 Err=  3.47D-09
    Cycle     3 NS=    96 Truncation Error =  0.000000003
 BS completed in    3 cycles and     208 integration steps.
 Maximum DWI energy   std dev =  0.000000012 at pt     1
 Maximum DWI gradient std dev =  0.001879763 at pt    36
 SUMMARY OF CORRECTOR INTEGRATION:
   Predictor End Point Energy =   -77.421816
   Old End Point Energy       =   -77.421816
   Corrected End Point Energy =   -77.421816
   Predictor End-Start Dist.  =     0.030231
   Old End-Start Dist.        =     0.030231
   New End-Start Dist.        =     0.030231
   New End-Old End Dist.      =     0.000158
 CORRECTOR INTEGRATION CONVERGENCE:
   Recorrection delta-x convergence threshold:    0.010000
   Delta-x Convergence Met
 Point Number:   1          Path Number:   1
                    CURRENT STRUCTURE
                Cartesian Coordinates (Ang):                
 ---------------------------------------------------------------------
 Center     Atomic                     Coordinates (Angstroms)
 Number     Number                        X           Y           Z
 ---------------------------------------------------------------------
      1          1                    0.873707   -0.375115   -0.352754
      2          1                   -0.749853    0.204855   -0.668369
      3          1                   -0.837772   -0.622282    0.029459
      4          1                   -1.695340   -0.452004   -0.684277
      5          8                    0.151804    0.078418    0.105599
 ---------------------------------------------------------------------
   CHANGE IN THE REACTION COORDINATE =    0.03023
   NET REACTION COORDINATE UP TO THIS POINT =    0.03023
  # OF POINTS ALONG THE PATH =   1
  # OF STEPS =   1

 Calculating another point on the path.
 Point Number  2 in FORWARD path direction.
 Using LQA Reaction Path Following.
   LQA: T_Est iteration completed in    3 iterations.
 IRC-IRC-IRC-IRC-IRC-IRC-IRC-IRC-IRC-IRC-IRC-IRC-IRC-IRC-IRC-IRC-IRC-IRC
 Leave Link  123 at Wed Mar  6 11:35:22 2024, MaxMem=   104857600 cpu:               0.0 elap:               0.0
 (Enter /opt/g16/l202.exe)
                          Input orientation:                          
 ---------------------------------------------------------------------
 Center     Atomic      Atomic             Coordinates (Angstroms)
 Number     Number       Type             X           Y           Z
 ---------------------------------------------------------------------
      1          1           0        0.873770   -0.374744   -0.352985
      2          1           0       -0.740361    0.206833   -0.664118
      3          1           0       -0.847525   -0.625290    0.025990
      4          1           0       -1.695596   -0.455629   -0.681109
      5          8           0        0.151832    0.078687    0.105365
 ---------------------------------------------------------------------
                    Distance matrix (angstroms):
                    1          2          3          4          5
     1  H    0.000000
     2  H    1.743690   0.000000
     3  H    1.780239   1.086353   0.000000
     4  H    2.591495   1.162591   1.117138   0.000000
     5  O    0.967925   1.185130   1.224990   2.077745   0.000000
 Symmetry turned off by external request.
 Stoichiometry    H4O
 Framework group  C1[X(H4O)]
 Deg. of freedom     9
 Full point group                 C1      NOp   1
 Rotational constants (GHZ):         380.1937189          75.6661335          74.0868590
 Leave Link  202 at Wed Mar  6 11:35:22 2024, MaxMem=   104857600 cpu:               0.0 elap:               0.0
 (Enter /opt/g16/l301.exe)
 Standard basis: STO-3G (5D, 7F)
 Ernie: Thresh=  0.10000D-02 Tol=  0.10000D-05 Strict=F.
     9 basis functions,    27 primitive gaussians,     9 cartesian basis functions
     6 alpha electrons        6 beta electrons
       nuclear repulsion energy        15.6601063851 Hartrees.
 IExCor=    0 DFT=F Ex=HF Corr=None ExCW=0 ScaHFX=  1.000000
 ScaDFX=  1.000000  1.000000  1.000000  1.000000 ScalE2=  1.000000  1.000000
 IRadAn=      5 IRanWt=     -1 IRanGd=            0 ICorTp=0 IEmpDi=  4
 NAtoms=    5 NActive=    5 NUniq=    5 SFac= 1.00D+00 NAtFMM=   60 NAOKFM=F Big=F
 Integral buffers will be    131072 words long.
 Raffenetti 1 integral format.
 Two-electron integral symmetry is turned off.
 Leave Link  301 at Wed Mar  6 11:35:22 2024, MaxMem=   104857600 cpu:               0.0 elap:               0.0
 (Enter /opt/g16/l402.exe)
 External calculation of energy, first and second derivatives.
 Running external command "python3 -u ../pes/h4o_pes.py R"
         input file       "/home/jh-li/scratch/g16/Gau-36137.EIn"
         output file      "/home/jh-li/scratch/g16/Gau-36137.EOu"
         message file     "/home/jh-li/scratch/g16/Gau-36137.EMs"
         fchk file        "/home/jh-li/scratch/g16/Gau-36137.EFC"
         mat. el file     "/home/jh-li/scratch/g16/Gau-36137.EUF"
 Recovered energy= -77.4222439572     dipole=      0.000000000000      0.000000000000      0.000000000000
 NRF= 0 NRA=   0 NVA=   0 HaveQM=F NVQ=       0
 Convergence limit is  0.750E-04 MaxStp= 10000 StMxLn= 3.00D-04 StpMin= 1.00D-06.
 Convergence criteria             0.00011250 0.00007500 0.00045000 0.00030000
  Step  NS  ND Rises OKQ   Scale  Max. Force  RMS Force Max. Disp.  RMS Disp.     Energy   Flag
     1   0   0   F    T  1.00D+00 0.00000000 0.00000000 0.00000000 0.00000000  -77.4222440 ====
 Running external command "python3 -u ../pes/h4o_pes.py R"
         input file       "/home/jh-li/scratch/g16/Gau-36137.EIn"
         output file      "/home/jh-li/scratch/g16/Gau-36137.EOu"
         message file     "/home/jh-li/scratch/g16/Gau-36137.EMs"
         fchk file        "/home/jh-li/scratch/g16/Gau-36137.EFC"
         mat. el file     "/home/jh-li/scratch/g16/Gau-36137.EUF"
 Recovered energy= -77.4222439572     dipole=      0.000000000000      0.000000000000      0.000000000000
 Energy=    -77.4222440     NIter=   0.
 Dipole moment=       0.000000       0.000000       0.000000
 Leave Link  402 at Wed Mar  6 11:35:23 2024, MaxMem=   104857600 cpu:               0.0 elap:               0.4
 (Enter /opt/g16/l716.exe)
 Dipole        = 0.00000000D+00 0.00000000D+00 0.00000000D+00
 -------------------------------------------------------------------
 Center     Atomic                   Forces (Hartrees/Bohr)
 Number     Number              X              Y              Z
 -------------------------------------------------------------------
      1        1           0.000065260    0.000435413   -0.000278125
      2        1           0.011205327    0.002332522    0.005022989
      3        1          -0.011620841   -0.003577224   -0.004140141
      4        1          -0.000266451   -0.004296853    0.003771334
      5        8           0.000604594    0.005104885   -0.004377347
 -------------------------------------------------------------------
 Cartesian Forces:  Max     0.011620841 RMS     0.005162856
 Force constants in Cartesian coordinates: 
                1             2             3             4             5 
      1  0.300101D+00
      2 -0.172882D+00  0.125285D+00
      3 -0.171541D+00  0.102759D+00  0.128379D+00
      4 -0.842721D-02  0.370860D-02 -0.471642D-02 -0.779772D-01
      5  0.536107D-02 -0.606039D-02  0.130287D-01 -0.506907D-01  0.671226D-01
      6  0.111614D-01 -0.101426D-01  0.148467D-01 -0.385149D-01 -0.573754D-01
      7 -0.724196D-02 -0.104187D-02  0.237028D-02  0.134969D+00 -0.149930D-02
      8  0.985707D-02  0.125382D-01 -0.632588D-02  0.519927D-01 -0.280870D-01
      9  0.616013D-02  0.137524D-01 -0.376258D-02  0.290397D-01  0.344182D-01
     10 -0.476199D-02 -0.267082D-02 -0.384317D-02 -0.116349D-01 -0.822313D-03
     11 -0.547714D-02  0.130505D-02 -0.467397D-02  0.485566D-01 -0.123549D-01
     12 -0.704719D-02 -0.489143D-02 -0.963559D-03 -0.341258D-01 -0.601511D-02
     13 -0.279678D+00  0.172883D+00  0.177726D+00 -0.369022D-01  0.476484D-01
     14  0.163141D+00 -0.133071D+00 -0.104792D+00 -0.535671D-01 -0.206268D-01
     15  0.161268D+00 -0.101482D+00 -0.138505D+00  0.483137D-01  0.159411D-01
                6             7             8             9            10 
      6  0.807076D-01
      7  0.774722D-01 -0.866076D-01
      8  0.705565D-01 -0.121910D-01  0.952012D-01
      9 -0.208488D-02 -0.734207D-01 -0.493762D-01  0.351691D-01
     10  0.549373D-02 -0.157312D-01  0.595999D-02  0.878936D-03  0.100254D+00
     11  0.221104D-01 -0.407752D-01 -0.404878D-01 -0.127689D-01  0.199995D-01
     12 -0.364620D-01  0.484215D-01  0.162813D-01 -0.119672D-01  0.302672D-01
     13 -0.556030D-01 -0.253580D-01 -0.556155D-01  0.373463D-01 -0.681276D-01
     14 -0.251441D-01  0.555074D-01 -0.391644D-01  0.139720D-01 -0.224675D-01
     15 -0.570098D-01 -0.548399D-01 -0.311292D-01 -0.173554D-01 -0.327971D-01
               11            12            13            14            15 
     11  0.138335D-01
     12  0.200303D-01  0.226272D-01
     13 -0.222985D-01 -0.375143D-01  0.410016D+00
     14  0.377033D-01 -0.254084D-01 -0.142616D+00  0.155170D+00
     15 -0.247004D-01  0.267626D-01 -0.121956D+00  0.141376D+00  0.186119D+00
 Leave Link  716 at Wed Mar  6 11:35:23 2024, MaxMem=   104857600 cpu:               0.0 elap:               0.0
 (Enter /opt/g16/l123.exe)
 IRC-IRC-IRC-IRC-IRC-IRC-IRC-IRC-IRC-IRC-IRC-IRC-IRC-IRC-IRC-IRC-IRC-IRC
 Pt  2 Step number   1 out of a maximum of  10
 Using modified Bulirsch-Stoer corrector integration.
   Using distance weighted interpolants to fit PES.
 PreDWI: IReCr0= 2 IReCr1= 1 IReCr2= 1 IReCr3= 1
 Modified Bulirsch-Stoer Extrapolation Cycles:
    EPS =    0.000010000000000
    Cycle     1 NS=    48
      PEZero:  N= 2 I= 1 D=  1.57D-04 Err=  8.81D-07
    Cycle     2 NS=    64 Truncation Error =  0.000000881
 BS completed in    2 cycles and     112 integration steps.
 Maximum DWI energy   std dev =  0.000000076 at pt    14
 Maximum DWI gradient std dev =  0.000942789 at pt    15
 SUMMARY OF CORRECTOR INTEGRATION:
   Predictor End Point Energy =   -77.422244
   Old End Point Energy       =   -77.422244
   Corrected End Point Energy =   -77.422244
   Predictor End-Start Dist.  =     0.030221
   Old End-Start Dist.        =     0.030221
   New End-Start Dist.        =     0.030221
   New End-Old End Dist.      =     0.000026
 CORRECTOR INTEGRATION CONVERGENCE:
   Recorrection delta-x convergence threshold:    0.010000
   Delta-x Convergence Met
 Point Number:   2          Path Number:   1
                    CURRENT STRUCTURE
                Cartesian Coordinates (Ang):                
 ---------------------------------------------------------------------
 Center     Atomic                     Coordinates (Angstroms)
 Number     Number                        X           Y           Z
 ---------------------------------------------------------------------
      1          1                    0.873770   -0.374742   -0.352983
      2          1                   -0.740369    0.206831   -0.664121
      3          1                   -0.847532   -0.625292    0.025986
      4          1                   -1.695590   -0.455628   -0.681106
      5          8                    0.151833    0.078688    0.105365
 ---------------------------------------------------------------------
   CHANGE IN THE REACTION COORDINATE =    0.03022
   NET REACTION COORDINATE UP TO THIS POINT =    0.06045
  # OF POINTS ALONG THE PATH =   2
  # OF STEPS =   1

 Calculating another point on the path.
 Point Number  3 in FORWARD path direction.
 Using LQA Reaction Path Following.
   LQA: T_Est iteration completed in    3 iterations.
 IRC-IRC-IRC-IRC-IRC-IRC-IRC-IRC-IRC-IRC-IRC-IRC-IRC-IRC-IRC-IRC-IRC-IRC
 Leave Link  123 at Wed Mar  6 11:35:23 2024, MaxMem=   104857600 cpu:               0.0 elap:               0.0
 (Enter /opt/g16/l202.exe)
                          Input orientation:                          
 ---------------------------------------------------------------------
 Center     Atomic      Atomic             Coordinates (Angstroms)
 Number     Number       Type             X           Y           Z
 ---------------------------------------------------------------------
      1          1           0        0.873823   -0.374378   -0.353220
      2          1           0       -0.730946    0.208790   -0.659893
      3          1           0       -0.857351   -0.628309    0.022483
      4          1           0       -1.695802   -0.459249   -0.677922
      5          8           0        0.151867    0.078959    0.105134
 ---------------------------------------------------------------------
                    Distance matrix (angstroms):
                    1          2          3          4          5
     1  H    0.000000
     2  H    1.734767   0.000000
     3  H    1.789579   1.087359   0.000000
     4  H    2.591449   1.173690   1.105509   0.000000
     5  O    0.967896   1.175364   1.235144   2.077673   0.000000
 Symmetry turned off by external request.
 Stoichiometry    H4O
 Framework group  C1[X(H4O)]
 Deg. of freedom     9
 Full point group                 C1      NOp   1
 Rotational constants (GHZ):         380.3325738          75.6490463          74.0657240
 Leave Link  202 at Wed Mar  6 11:35:23 2024, MaxMem=   104857600 cpu:               0.0 elap:               0.0
 (Enter /opt/g16/l301.exe)
 Standard basis: STO-3G (5D, 7F)
 Ernie: Thresh=  0.10000D-02 Tol=  0.10000D-05 Strict=F.
     9 basis functions,    27 primitive gaussians,     9 cartesian basis functions
     6 alpha electrons        6 beta electrons
       nuclear repulsion energy        15.6618189361 Hartrees.
 IExCor=    0 DFT=F Ex=HF Corr=None ExCW=0 ScaHFX=  1.000000
 ScaDFX=  1.000000  1.000000  1.000000  1.000000 ScalE2=  1.000000  1.000000
 IRadAn=      5 IRanWt=     -1 IRanGd=            0 ICorTp=0 IEmpDi=  4
 NAtoms=    5 NActive=    5 NUniq=    5 SFac= 1.00D+00 NAtFMM=   60 NAOKFM=F Big=F
 Integral buffers will be    131072 words long.
 Raffenetti 1 integral format.
 Two-electron integral symmetry is turned off.
 Leave Link  301 at Wed Mar  6 11:35:23 2024, MaxMem=   104857600 cpu:               0.0 elap:               0.0
 (Enter /opt/g16/l402.exe)
 External calculation of energy, first and second derivatives.
 Running external command "python3 -u ../pes/h4o_pes.py R"
         input file       "/home/jh-li/scratch/g16/Gau-36137.EIn"
         output file      "/home/jh-li/scratch/g16/Gau-36137.EOu"
         message file     "/home/jh-li/scratch/g16/Gau-36137.EMs"
         fchk file        "/home/jh-li/scratch/g16/Gau-36137.EFC"
         mat. el file     "/home/jh-li/scratch/g16/Gau-36137.EUF"
 Recovered energy= -77.4229525637     dipole=      0.000000000000      0.000000000000      0.000000000000
 NRF= 0 NRA=   0 NVA=   0 HaveQM=F NVQ=       0
 Convergence limit is  0.750E-04 MaxStp= 10000 StMxLn= 3.00D-04 StpMin= 1.00D-06.
 Convergence criteria             0.00011250 0.00007500 0.00045000 0.00030000
  Step  NS  ND Rises OKQ   Scale  Max. Force  RMS Force Max. Disp.  RMS Disp.     Energy   Flag
     1   0   0   F    T  1.00D+00 0.00000000 0.00000000 0.00000000 0.00000000  -77.4229526 ====
 Running external command "python3 -u ../pes/h4o_pes.py R"
         input file       "/home/jh-li/scratch/g16/Gau-36137.EIn"
         output file      "/home/jh-li/scratch/g16/Gau-36137.EOu"
         message file     "/home/jh-li/scratch/g16/Gau-36137.EMs"
         fchk file        "/home/jh-li/scratch/g16/Gau-36137.EFC"
         mat. el file     "/home/jh-li/scratch/g16/Gau-36137.EUF"
 Recovered energy= -77.4229525637     dipole=      0.000000000000      0.000000000000      0.000000000000
 Energy=    -77.4229526     NIter=   0.
 Dipole moment=       0.000000       0.000000       0.000000
 Leave Link  402 at Wed Mar  6 11:35:23 2024, MaxMem=   104857600 cpu:               0.0 elap:               0.4
 (Enter /opt/g16/l716.exe)
 Dipole        = 0.00000000D+00 0.00000000D+00 0.00000000D+00
 -------------------------------------------------------------------
 Center     Atomic                   Forces (Hartrees/Bohr)
 Number     Number              X              Y              Z
 -------------------------------------------------------------------
      1        1           0.000087428    0.000645991   -0.000410206
      2        1           0.016561207    0.003440866    0.007435883
      3        1          -0.017403094   -0.005335094   -0.006220372
      4        1          -0.000327547   -0.006386887    0.005642181
      5        8           0.001070002    0.007633853   -0.006448584
 -------------------------------------------------------------------
 Cartesian Forces:  Max     0.017403094 RMS     0.007684449
 Force constants in Cartesian coordinates: 
                1             2             3             4             5 
      1  0.300051D+00
      2 -0.173593D+00  0.124690D+00
      3 -0.170887D+00  0.102557D+00  0.129029D+00
      4 -0.877158D-02  0.387209D-02 -0.574737D-02 -0.707401D-01
      5  0.580209D-02 -0.625247D-02  0.133484D-01 -0.499778D-01  0.682076D-01
      6  0.118981D-01 -0.102093D-01  0.149910D-01 -0.358006D-01 -0.570025D-01
      7 -0.702319D-02 -0.407926D-03  0.253972D-02  0.132708D+00 -0.273625D-02
      8  0.905872D-02  0.123065D-01 -0.627687D-02  0.503371D-01 -0.285853D-01
      9  0.570466D-02  0.133747D-01 -0.359093D-02  0.293413D-01  0.340929D-01
     10 -0.467047D-02 -0.271508D-02 -0.376214D-02 -0.127041D-01 -0.120403D-02
     11 -0.552422D-02  0.124276D-02 -0.450025D-02  0.468426D-01 -0.111348D-01
     12 -0.692371D-02 -0.496059D-02 -0.969470D-03 -0.342195D-01 -0.605550D-02
     13 -0.279593D+00  0.172840D+00  0.177853D+00 -0.404657D-01  0.481120D-01
     14  0.164256D+00 -0.131991D+00 -0.105132D+00 -0.510742D-01 -0.222416D-01
     15  0.160209D+00 -0.100767D+00 -0.139465D+00  0.464221D-01  0.156143D-01
                6             7             8             9            10 
      6  0.833864D-01
      7  0.771308D-01 -0.868168D-01
      8  0.698414D-01 -0.117394D-01  0.941284D-01
      9 -0.158232D-02 -0.729885D-01 -0.493119D-01  0.344559D-01
     10  0.421500D-02 -0.152642D-01  0.693314D-02  0.130211D-02  0.100645D+00
     11  0.212972D-01 -0.396580D-01 -0.417346D-01 -0.123562D-01  0.207773D-01
     12 -0.350322D-01  0.486445D-01  0.166172D-01 -0.135950D-01  0.297433D-01
     13 -0.574332D-01 -0.235728D-01 -0.545868D-01  0.366456D-01 -0.680076D-01
     14 -0.239220D-01  0.545419D-01 -0.361148D-01  0.141978D-01 -0.237925D-01
     15 -0.617654D-01 -0.553231D-01 -0.308639D-01 -0.156884D-01 -0.314987D-01
               11            12            13            14            15 
     11  0.147302D-01
     12  0.198704D-01  0.225811D-01
     13 -0.224313D-01 -0.372444D-01  0.411591D+00
     14  0.368956D-01 -0.254748D-01 -0.143933D+00  0.153462D+00
     15 -0.243137D-01  0.270127D-01 -0.119821D+00  0.140335D+00  0.189917D+00
 Leave Link  716 at Wed Mar  6 11:35:23 2024, MaxMem=   104857600 cpu:               0.0 elap:               0.0
 (Enter /opt/g16/l123.exe)
 IRC-IRC-IRC-IRC-IRC-IRC-IRC-IRC-IRC-IRC-IRC-IRC-IRC-IRC-IRC-IRC-IRC-IRC
 Pt  3 Step number   1 out of a maximum of  10
 Using modified Bulirsch-Stoer corrector integration.
   Using distance weighted interpolants to fit PES.
 PreDWI: IReCr0= 2 IReCr1= 1 IReCr2= 1 IReCr3= 1
 Modified Bulirsch-Stoer Extrapolation Cycles:
    EPS =    0.000010000000000
    Cycle     1 NS=    48
      PEZero:  N= 2 I= 1 D=  1.57D-04 Err=  9.61D-07
    Cycle     2 NS=    64 Truncation Error =  0.000000961
 BS completed in    2 cycles and     112 integration steps.
 Maximum DWI energy   std dev =  0.000000104 at pt    10
 Maximum DWI gradient std dev =  0.000529613 at pt    16
 SUMMARY OF CORRECTOR INTEGRATION:
   Predictor End Point Energy =   -77.422953
   Old End Point Energy       =   -77.422953
   Corrected End Point Energy =   -77.422953
   Predictor End-Start Dist.  =     0.030223
   Old End-Start Dist.        =     0.030223
   New End-Start Dist.        =     0.030223
   New End-Old End Dist.      =     0.000018
 CORRECTOR INTEGRATION CONVERGENCE:
   Recorrection delta-x convergence threshold:    0.010000
   Delta-x Convergence Met
 Point Number:   3          Path Number:   1
                    CURRENT STRUCTURE
                Cartesian Coordinates (Ang):                
 ---------------------------------------------------------------------
 Center     Atomic                     Coordinates (Angstroms)
 Number     Number                        X           Y           Z
 ---------------------------------------------------------------------
      1          1                    0.873822   -0.374377   -0.353219
      2          1                   -0.730952    0.208789   -0.659895
      3          1                   -0.857355   -0.628310    0.022481
      4          1                   -1.695798   -0.459249   -0.677920
      5          8                    0.151868    0.078959    0.105134
 ---------------------------------------------------------------------
   CHANGE IN THE REACTION COORDINATE =    0.03022
   NET REACTION COORDINATE UP TO THIS POINT =    0.09067
  # OF POINTS ALONG THE PATH =   3
  # OF STEPS =   1

 Calculating another point on the path.
 Point Number  4 in FORWARD path direction.
 Using LQA Reaction Path Following.
   LQA: T_Est iteration completed in    3 iterations.
 IRC-IRC-IRC-IRC-IRC-IRC-IRC-IRC-IRC-IRC-IRC-IRC-IRC-IRC-IRC-IRC-IRC-IRC
 Leave Link  123 at Wed Mar  6 11:35:23 2024, MaxMem=   104857600 cpu:               0.0 elap:               0.0
 (Enter /opt/g16/l202.exe)
                          Input orientation:                          
 ---------------------------------------------------------------------
 Center     Atomic      Atomic             Coordinates (Angstroms)
 Number     Number       Type             X           Y           Z
 ---------------------------------------------------------------------
      1          1           0        0.873871   -0.374011   -0.353449
      2          1           0       -0.721598    0.210730   -0.655692
      3          1           0       -0.867237   -0.631333    0.018944
      4          1           0       -1.695969   -0.462864   -0.674718
      5          8           0        0.151908    0.079232    0.104905
 ---------------------------------------------------------------------
                    Distance matrix (angstroms):
                    1          2          3          4          5
     1  H    0.000000
     2  H    1.725919   0.000000
     3  H    1.798986   1.088768   0.000000
     4  H    2.591368   1.184690   1.093775   0.000000
     5  O    0.967858   1.165681   1.245371   2.077578   0.000000
 Symmetry turned off by external request.
 Stoichiometry    H4O
 Framework group  C1[X(H4O)]
 Deg. of freedom     9
 Full point group                 C1      NOp   1
 Rotational constants (GHZ):         380.5195017          75.6251824          74.0359856
 Leave Link  202 at Wed Mar  6 11:35:23 2024, MaxMem=   104857600 cpu:               0.0 elap:               0.0
 (Enter /opt/g16/l301.exe)
 Standard basis: STO-3G (5D, 7F)
 Ernie: Thresh=  0.10000D-02 Tol=  0.10000D-05 Strict=F.
     9 basis functions,    27 primitive gaussians,     9 cartesian basis functions
     6 alpha electrons        6 beta electrons
       nuclear repulsion energy        15.6641971357 Hartrees.
 IExCor=    0 DFT=F Ex=HF Corr=None ExCW=0 ScaHFX=  1.000000
 ScaDFX=  1.000000  1.000000  1.000000  1.000000 ScalE2=  1.000000  1.000000
 IRadAn=      5 IRanWt=     -1 IRanGd=            0 ICorTp=0 IEmpDi=  4
 NAtoms=    5 NActive=    5 NUniq=    5 SFac= 1.00D+00 NAtFMM=   60 NAOKFM=F Big=F
 Integral buffers will be    131072 words long.
 Raffenetti 1 integral format.
 Two-electron integral symmetry is turned off.
 Leave Link  301 at Wed Mar  6 11:35:24 2024, MaxMem=   104857600 cpu:               0.0 elap:               0.1
 (Enter /opt/g16/l402.exe)
 External calculation of energy, first and second derivatives.
 Running external command "python3 -u ../pes/h4o_pes.py R"
         input file       "/home/jh-li/scratch/g16/Gau-36137.EIn"
         output file      "/home/jh-li/scratch/g16/Gau-36137.EOu"
         message file     "/home/jh-li/scratch/g16/Gau-36137.EMs"
         fchk file        "/home/jh-li/scratch/g16/Gau-36137.EFC"
         mat. el file     "/home/jh-li/scratch/g16/Gau-36137.EUF"
 Recovered energy= -77.4239354827     dipole=      0.000000000000      0.000000000000      0.000000000000
 NRF= 0 NRA=   0 NVA=   0 HaveQM=F NVQ=       0
 Convergence limit is  0.750E-04 MaxStp= 10000 StMxLn= 3.00D-04 StpMin= 1.00D-06.
 Convergence criteria             0.00011250 0.00007500 0.00045000 0.00030000
  Step  NS  ND Rises OKQ   Scale  Max. Force  RMS Force Max. Disp.  RMS Disp.     Energy   Flag
     1   0   0   F    T  1.00D+00 0.00000000 0.00000000 0.00000000 0.00000000  -77.4239355 ====
 Running external command "python3 -u ../pes/h4o_pes.py R"
         input file       "/home/jh-li/scratch/g16/Gau-36137.EIn"
         output file      "/home/jh-li/scratch/g16/Gau-36137.EOu"
         message file     "/home/jh-li/scratch/g16/Gau-36137.EMs"
         fchk file        "/home/jh-li/scratch/g16/Gau-36137.EFC"
         mat. el file     "/home/jh-li/scratch/g16/Gau-36137.EUF"
 Recovered energy= -77.4239354827     dipole=      0.000000000000      0.000000000000      0.000000000000
 Energy=    -77.4239355     NIter=   0.
 Dipole moment=       0.000000       0.000000       0.000000
 Leave Link  402 at Wed Mar  6 11:35:24 2024, MaxMem=   104857600 cpu:               0.0 elap:               0.4
 (Enter /opt/g16/l716.exe)
 Dipole        = 0.00000000D+00 0.00000000D+00 0.00000000D+00
 -------------------------------------------------------------------
 Center     Atomic                   Forces (Hartrees/Bohr)
 Number     Number              X              Y              Z
 -------------------------------------------------------------------
      1        1           0.000109570    0.000858600   -0.000522831
      2        1           0.021683178    0.004502651    0.009749087
      3        1          -0.023097901   -0.007050969   -0.008284762
      4        1          -0.000343447   -0.008413746    0.007485846
      5        8           0.001636756    0.010102186   -0.008428233
 -------------------------------------------------------------------
 Cartesian Forces:  Max     0.023097901 RMS     0.010136018
 Force constants in Cartesian coordinates: 
                1             2             3             4             5 
      1  0.300016D+00
      2 -0.174274D+00  0.124101D+00
      3 -0.170218D+00  0.102347D+00  0.129659D+00
      4 -0.911926D-02  0.407420D-02 -0.683585D-02 -0.622021D-01
      5  0.627081D-02 -0.643358D-02  0.136511D-01 -0.491461D-01  0.692908D-01
      6  0.126165D-01 -0.102486D-01  0.151036D-01 -0.323674D-01 -0.565650D-01
      7 -0.686670D-02  0.148524D-03  0.273098D-02  0.129675D+00 -0.403498D-02
      8  0.825471D-02  0.120593D-01 -0.621267D-02  0.484166D-01 -0.290614D-01
      9  0.526456D-02  0.129738D-01 -0.340846D-02  0.294340D-01  0.337120D-01
     10 -0.454001D-02 -0.275598D-02 -0.367051D-02 -0.138433D-01 -0.160729D-02
     11 -0.556377D-02  0.116303D-02 -0.430601D-02  0.448368D-01 -0.100141D-01
     12 -0.676992D-02 -0.500707D-02 -0.984874D-03 -0.340755D-01 -0.605771D-02
     13 -0.279497D+00  0.172804D+00  0.177990D+00 -0.444859D-01  0.485125D-01
     14  0.165311D+00 -0.130893D+00 -0.105483D+00 -0.481820D-01 -0.237882D-01
     15  0.159108D+00 -0.100071D+00 -0.140374D+00  0.438402D-01  0.152576D-01
                6             7             8             9            10 
      6  0.864395D-01
      7  0.763859D-01 -0.856601D-01
      8  0.689202D-01 -0.109140D-01  0.932181D-01
      9 -0.115396D-02 -0.721011D-01 -0.491202D-01  0.339520D-01
     10  0.294897D-02 -0.149736D-01  0.790654D-02  0.159877D-02  0.101141D+00
     11  0.203709D-01 -0.382582D-01 -0.428884D-01 -0.118410D-01  0.215168D-01
     12 -0.335312D-01  0.484685D-01  0.168910D-01 -0.153790D-01  0.292995D-01
     13 -0.595733D-01 -0.221439D-01 -0.536617D-01  0.358096D-01 -0.677861D-01
     14 -0.224725D-01  0.530592D-01 -0.333275D-01  0.142727D-01 -0.250612D-01
     15 -0.668608D-01 -0.554806D-01 -0.304728D-01 -0.140111D-01 -0.301770D-01
               11            12            13            14            15 
     11  0.157869D-01
     12  0.195906D-01  0.227549D-01
     13 -0.225240D-01 -0.369234D-01  0.413866D+00
     14  0.359515D-01 -0.254201D-01 -0.145129D+00  0.152069D+00
     15 -0.238170D-01  0.271373D-01 -0.117302D+00  0.139108D+00  0.194120D+00
 Leave Link  716 at Wed Mar  6 11:35:24 2024, MaxMem=   104857600 cpu:               0.0 elap:               0.0
 (Enter /opt/g16/l123.exe)
 IRC-IRC-IRC-IRC-IRC-IRC-IRC-IRC-IRC-IRC-IRC-IRC-IRC-IRC-IRC-IRC-IRC-IRC
 Pt  4 Step number   1 out of a maximum of  10
 Using modified Bulirsch-Stoer corrector integration.
   Using distance weighted interpolants to fit PES.
 PreDWI: IReCr0= 2 IReCr1= 1 IReCr2= 1 IReCr3= 1
 Modified Bulirsch-Stoer Extrapolation Cycles:
    EPS =    0.000010000000000
    Cycle     1 NS=    48
      PEZero:  N= 2 I= 1 D=  1.57D-04 Err=  1.01D-06
    Cycle     2 NS=    64 Truncation Error =  0.000001007
 BS completed in    2 cycles and     112 integration steps.
 Maximum DWI energy   std dev =  0.000000132 at pt    13
 Maximum DWI gradient std dev =  0.000374296 at pt    16
 SUMMARY OF CORRECTOR INTEGRATION:
   Predictor End Point Energy =   -77.423935
   Old End Point Energy       =   -77.423935
   Corrected End Point Energy =   -77.423935
   Predictor End-Start Dist.  =     0.030224
   Old End-Start Dist.        =     0.030224
   New End-Start Dist.        =     0.030224
   New End-Old End Dist.      =     0.000013
 CORRECTOR INTEGRATION CONVERGENCE:
   Recorrection delta-x convergence threshold:    0.010000
   Delta-x Convergence Met
 Point Number:   4          Path Number:   1
                    CURRENT STRUCTURE
                Cartesian Coordinates (Ang):                
 ---------------------------------------------------------------------
 Center     Atomic                     Coordinates (Angstroms)
 Number     Number                        X           Y           Z
 ---------------------------------------------------------------------
      1          1                    0.873871   -0.374011   -0.353448
      2          1                   -0.721603    0.210730   -0.655694
      3          1                   -0.867241   -0.631334    0.018942
      4          1                   -1.695967   -0.462864   -0.674716
      5          8                    0.151909    0.079232    0.104905
 ---------------------------------------------------------------------
   CHANGE IN THE REACTION COORDINATE =    0.03022
   NET REACTION COORDINATE UP TO THIS POINT =    0.12090
  # OF POINTS ALONG THE PATH =   4
  # OF STEPS =   1

 Calculating another point on the path.
 Point Number  5 in FORWARD path direction.
 Using LQA Reaction Path Following.
   LQA: T_Est iteration completed in    3 iterations.
 IRC-IRC-IRC-IRC-IRC-IRC-IRC-IRC-IRC-IRC-IRC-IRC-IRC-IRC-IRC-IRC-IRC-IRC
 Leave Link  123 at Wed Mar  6 11:35:24 2024, MaxMem=   104857600 cpu:               0.0 elap:               0.0
 (Enter /opt/g16/l202.exe)
                          Input orientation:                          
 ---------------------------------------------------------------------
 Center     Atomic      Atomic             Coordinates (Angstroms)
 Number     Number       Type             X           Y           Z
 ---------------------------------------------------------------------
      1          1           0        0.873918   -0.373641   -0.353669
      2          1           0       -0.712321    0.212657   -0.651519
      3          1           0       -0.877186   -0.634364    0.015369
      4          1           0       -1.696099   -0.466475   -0.671494
      5          8           0        0.151955    0.079506    0.104677
 ---------------------------------------------------------------------
                    Distance matrix (angstroms):
                    1          2          3          4          5
     1  H    0.000000
     2  H    1.717153   0.000000
     3  H    1.808461   1.090579   0.000000
     4  H    2.591258   1.195591   1.081936   0.000000
     5  O    0.967809   1.156086   1.255674   2.077461   0.000000
 Symmetry turned off by external request.
 Stoichiometry    H4O
 Framework group  C1[X(H4O)]
 Deg. of freedom     9
 Full point group                 C1      NOp   1
 Rotational constants (GHZ):         380.7554503          75.5943404          73.9975611
 Leave Link  202 at Wed Mar  6 11:35:24 2024, MaxMem=   104857600 cpu:               0.0 elap:               0.0
 (Enter /opt/g16/l301.exe)
 Standard basis: STO-3G (5D, 7F)
 Ernie: Thresh=  0.10000D-02 Tol=  0.10000D-05 Strict=F.
     9 basis functions,    27 primitive gaussians,     9 cartesian basis functions
     6 alpha electrons        6 beta electrons
       nuclear repulsion energy        15.6672310632 Hartrees.
 IExCor=    0 DFT=F Ex=HF Corr=None ExCW=0 ScaHFX=  1.000000
 ScaDFX=  1.000000  1.000000  1.000000  1.000000 ScalE2=  1.000000  1.000000
 IRadAn=      5 IRanWt=     -1 IRanGd=            0 ICorTp=0 IEmpDi=  4
 NAtoms=    5 NActive=    5 NUniq=    5 SFac= 1.00D+00 NAtFMM=   60 NAOKFM=F Big=F
 Integral buffers will be    131072 words long.
 Raffenetti 1 integral format.
 Two-electron integral symmetry is turned off.
 Leave Link  301 at Wed Mar  6 11:35:24 2024, MaxMem=   104857600 cpu:               0.0 elap:               0.0
 (Enter /opt/g16/l402.exe)
 External calculation of energy, first and second derivatives.
 Running external command "python3 -u ../pes/h4o_pes.py R"
         input file       "/home/jh-li/scratch/g16/Gau-36137.EIn"
         output file      "/home/jh-li/scratch/g16/Gau-36137.EOu"
         message file     "/home/jh-li/scratch/g16/Gau-36137.EMs"
         fchk file        "/home/jh-li/scratch/g16/Gau-36137.EFC"
         mat. el file     "/home/jh-li/scratch/g16/Gau-36137.EUF"
 Recovered energy= -77.4251837902     dipole=      0.000000000000      0.000000000000      0.000000000000
 NRF= 0 NRA=   0 NVA=   0 HaveQM=F NVQ=       0
 Convergence limit is  0.750E-04 MaxStp= 10000 StMxLn= 3.00D-04 StpMin= 1.00D-06.
 Convergence criteria             0.00011250 0.00007500 0.00045000 0.00030000
  Step  NS  ND Rises OKQ   Scale  Max. Force  RMS Force Max. Disp.  RMS Disp.     Energy   Flag
     1   0   0   F    T  1.00D+00 0.00000000 0.00000000 0.00000000 0.00000000  -77.4251838 ====
 Running external command "python3 -u ../pes/h4o_pes.py R"
         input file       "/home/jh-li/scratch/g16/Gau-36137.EIn"
         output file      "/home/jh-li/scratch/g16/Gau-36137.EOu"
         message file     "/home/jh-li/scratch/g16/Gau-36137.EMs"
         fchk file        "/home/jh-li/scratch/g16/Gau-36137.EFC"
         mat. el file     "/home/jh-li/scratch/g16/Gau-36137.EUF"
 Recovered energy= -77.4251837902     dipole=      0.000000000000      0.000000000000      0.000000000000
 Energy=    -77.4251838     NIter=   0.
 Dipole moment=       0.000000       0.000000       0.000000
 Leave Link  402 at Wed Mar  6 11:35:24 2024, MaxMem=   104857600 cpu:               0.1 elap:               0.4
 (Enter /opt/g16/l716.exe)
 Dipole        = 0.00000000D+00 0.00000000D+00 0.00000000D+00
 -------------------------------------------------------------------
 Center     Atomic                   Forces (Hartrees/Bohr)
 Number     Number              X              Y              Z
 -------------------------------------------------------------------
      1        1           0.000131256    0.001069982   -0.000615020
      2        1           0.026524749    0.005512576    0.011938156
      3        1          -0.028654260   -0.008709630   -0.010316334
      4        1          -0.000318849   -0.010363140    0.009286118
      5        8           0.002305475    0.012488933   -0.010293597
 -------------------------------------------------------------------
 Cartesian Forces:  Max     0.028654260 RMS     0.012496231
 Force constants in Cartesian coordinates: 
                1             2             3             4             5 
      1  0.300004D+00
      2 -0.174926D+00  0.123520D+00
      3 -0.169540D+00  0.102134D+00  0.130264D+00
      4 -0.946376D-02  0.430818D-02 -0.797101D-02 -0.524479D-01
      5  0.676438D-02 -0.660300D-02  0.139372D-01 -0.482269D-01  0.703515D-01
      6  0.133157D-01 -0.102619D-01  0.151848D-01 -0.282166D-01 -0.560754D-01
      7 -0.677514D-02  0.632864D-03  0.293731D-02  0.125938D+00 -0.538364D-02
      8  0.745078D-02  0.117981D-01 -0.613447D-02  0.462544D-01 -0.295112D-01
      9  0.483737D-02  0.125539D-01 -0.321698D-02  0.293329D-01  0.332767D-01
     10 -0.437344D-02 -0.279332D-02 -0.356900D-02 -0.150254D-01 -0.201980D-02
     11 -0.559784D-02  0.106878D-02 -0.409447D-02  0.425797D-01 -0.898995D-02
     12 -0.658565D-02 -0.503301D-02 -0.100807D-02 -0.337078D-01 -0.602332D-02
     13 -0.279398D+00  0.172775D+00  0.178139D+00 -0.489785D-01  0.488598D-01
     14  0.166308D+00 -0.129788D+00 -0.105845D+00 -0.449162D-01 -0.252539D-01
     15  0.157973D+00 -0.993989D-01 -0.141229D+00  0.405575D-01  0.148830D-01
                6             7             8             9            10 
      6  0.898668D-01
      7  0.752606D-01 -0.832127D-01
      8  0.678026D-01 -0.976488D-02  0.924523D-01
      9 -0.794198D-03 -0.707588D-01 -0.488107D-01  0.336712D-01
     10  0.170698D-02 -0.148881D-01  0.887637D-02  0.174484D-02  0.101749D+00
     11  0.193438D-01 -0.365976D-01 -0.439463D-01 -0.112265D-01  0.221977D-01
     12 -0.319707D-01  0.478866D-01  0.171086D-01 -0.173200D-01  0.289606D-01
     13 -0.620557D-01 -0.210316D-01 -0.528150D-01  0.348502D-01 -0.674640D-01
     14 -0.208040D-01  0.511139D-01 -0.307929D-01  0.142041D-01 -0.262620D-01
     15 -0.722897D-01 -0.553220D-01 -0.299609D-01 -0.123404D-01 -0.288436D-01
               11            12            13            14            15 
     11  0.169820D-01
     12  0.191928D-01  0.231576D-01
     13 -0.225734D-01 -0.365558D-01  0.416828D+00
     14  0.348844D-01 -0.252482D-01 -0.146244D+00  0.150962D+00
     15 -0.232180D-01  0.271385D-01 -0.114378D+00  0.137699D+00  0.198732D+00
 Leave Link  716 at Wed Mar  6 11:35:25 2024, MaxMem=   104857600 cpu:               0.0 elap:               0.0
 (Enter /opt/g16/l123.exe)
 IRC-IRC-IRC-IRC-IRC-IRC-IRC-IRC-IRC-IRC-IRC-IRC-IRC-IRC-IRC-IRC-IRC-IRC
 Pt  5 Step number   1 out of a maximum of  10
 Using modified Bulirsch-Stoer corrector integration.
   Using distance weighted interpolants to fit PES.
 PreDWI: IReCr0= 2 IReCr1= 1 IReCr2= 1 IReCr3= 1
 Modified Bulirsch-Stoer Extrapolation Cycles:
    EPS =    0.000010000000000
    Cycle     1 NS=    48
      PEZero:  N= 2 I= 1 D=  1.57D-04 Err=  1.05D-06
    Cycle     2 NS=    64 Truncation Error =  0.000001049
 BS completed in    2 cycles and     112 integration steps.
 Maximum DWI energy   std dev =  0.000000156 at pt    13
 Maximum DWI gradient std dev =  0.000294158 at pt    16
 SUMMARY OF CORRECTOR INTEGRATION:
   Predictor End Point Energy =   -77.425184
   Old End Point Energy       =   -77.425184
   Corrected End Point Energy =   -77.425184
   Predictor End-Start Dist.  =     0.030224
   Old End-Start Dist.        =     0.030224
   New End-Start Dist.        =     0.030224
   New End-Old End Dist.      =     0.000011
 CORRECTOR INTEGRATION CONVERGENCE:
   Recorrection delta-x convergence threshold:    0.010000
   Delta-x Convergence Met
 Point Number:   5          Path Number:   1
                    CURRENT STRUCTURE
                Cartesian Coordinates (Ang):                
 ---------------------------------------------------------------------
 Center     Atomic                     Coordinates (Angstroms)
 Number     Number                        X           Y           Z
 ---------------------------------------------------------------------
      1          1                    0.873918   -0.373640   -0.353669
      2          1                   -0.712325    0.212656   -0.651520
      3          1                   -0.877189   -0.634364    0.015367
      4          1                   -1.696097   -0.466475   -0.671492
      5          8                    0.151956    0.079506    0.104678
 ---------------------------------------------------------------------
   CHANGE IN THE REACTION COORDINATE =    0.03022
   NET REACTION COORDINATE UP TO THIS POINT =    0.15112
  # OF POINTS ALONG THE PATH =   5
  # OF STEPS =   1

 Calculating another point on the path.
 Point Number  6 in FORWARD path direction.
 Using LQA Reaction Path Following.
   LQA: T_Est iteration completed in    3 iterations.
 IRC-IRC-IRC-IRC-IRC-IRC-IRC-IRC-IRC-IRC-IRC-IRC-IRC-IRC-IRC-IRC-IRC-IRC
 Leave Link  123 at Wed Mar  6 11:35:25 2024, MaxMem=   104857600 cpu:               0.0 elap:               0.0
 (Enter /opt/g16/l202.exe)
                          Input orientation:                          
 ---------------------------------------------------------------------
 Center     Atomic      Atomic             Coordinates (Angstroms)
 Number     Number       Type             X           Y           Z
 ---------------------------------------------------------------------
      1          1           0        0.873964   -0.373266   -0.353878
      2          1           0       -0.703118    0.214571   -0.647374
      3          1           0       -0.887197   -0.637400    0.011757
      4          1           0       -1.696193   -0.470084   -0.668249
      5          8           0        0.152009    0.079781    0.104453
 ---------------------------------------------------------------------
                    Distance matrix (angstroms):
                    1          2          3          4          5
     1  H    0.000000
     2  H    1.708472   0.000000
     3  H    1.818006   1.092792   0.000000
     4  H    2.591121   1.206394   1.069990   0.000000
     5  O    0.967748   1.146584   1.266053   2.077323   0.000000
 Symmetry turned off by external request.
 Stoichiometry    H4O
 Framework group  C1[X(H4O)]
 Deg. of freedom     9
 Full point group                 C1      NOp   1
 Rotational constants (GHZ):         381.0401815          75.5562983          73.9503289
 Leave Link  202 at Wed Mar  6 11:35:25 2024, MaxMem=   104857600 cpu:               0.0 elap:               0.0
 (Enter /opt/g16/l301.exe)
 Standard basis: STO-3G (5D, 7F)
 Ernie: Thresh=  0.10000D-02 Tol=  0.10000D-05 Strict=F.
     9 basis functions,    27 primitive gaussians,     9 cartesian basis functions
     6 alpha electrons        6 beta electrons
       nuclear repulsion energy        15.6709052021 Hartrees.
 IExCor=    0 DFT=F Ex=HF Corr=None ExCW=0 ScaHFX=  1.000000
 ScaDFX=  1.000000  1.000000  1.000000  1.000000 ScalE2=  1.000000  1.000000
 IRadAn=      5 IRanWt=     -1 IRanGd=            0 ICorTp=0 IEmpDi=  4
 NAtoms=    5 NActive=    5 NUniq=    5 SFac= 1.00D+00 NAtFMM=   60 NAOKFM=F Big=F
 Integral buffers will be    131072 words long.
 Raffenetti 1 integral format.
 Two-electron integral symmetry is turned off.
 Leave Link  301 at Wed Mar  6 11:35:25 2024, MaxMem=   104857600 cpu:               0.0 elap:               0.0
 (Enter /opt/g16/l402.exe)
 External calculation of energy, first and second derivatives.
 Running external command "python3 -u ../pes/h4o_pes.py R"
         input file       "/home/jh-li/scratch/g16/Gau-36137.EIn"
         output file      "/home/jh-li/scratch/g16/Gau-36137.EOu"
         message file     "/home/jh-li/scratch/g16/Gau-36137.EMs"
         fchk file        "/home/jh-li/scratch/g16/Gau-36137.EFC"
         mat. el file     "/home/jh-li/scratch/g16/Gau-36137.EUF"
 Recovered energy= -77.4266862897     dipole=      0.000000000000      0.000000000000      0.000000000000
 NRF= 0 NRA=   0 NVA=   0 HaveQM=F NVQ=       0
 Convergence limit is  0.750E-04 MaxStp= 10000 StMxLn= 3.00D-04 StpMin= 1.00D-06.
 Convergence criteria             0.00011250 0.00007500 0.00045000 0.00030000
  Step  NS  ND Rises OKQ   Scale  Max. Force  RMS Force Max. Disp.  RMS Disp.     Energy   Flag
     1   0   0   F    T  1.00D+00 0.00000000 0.00000000 0.00000000 0.00000000  -77.4266863 ====
 Running external command "python3 -u ../pes/h4o_pes.py R"
         input file       "/home/jh-li/scratch/g16/Gau-36137.EIn"
         output file      "/home/jh-li/scratch/g16/Gau-36137.EOu"
         message file     "/home/jh-li/scratch/g16/Gau-36137.EMs"
         fchk file        "/home/jh-li/scratch/g16/Gau-36137.EFC"
         mat. el file     "/home/jh-li/scratch/g16/Gau-36137.EUF"
 Recovered energy= -77.4266862897     dipole=      0.000000000000      0.000000000000      0.000000000000
 Energy=    -77.4266863     NIter=   0.
 Dipole moment=       0.000000       0.000000       0.000000
 Leave Link  402 at Wed Mar  6 11:35:25 2024, MaxMem=   104857600 cpu:               0.0 elap:               0.4
 (Enter /opt/g16/l716.exe)
 Dipole        = 0.00000000D+00 0.00000000D+00 0.00000000D+00
 -------------------------------------------------------------------
 Center     Atomic                   Forces (Hartrees/Bohr)
 Number     Number              X              Y              Z
 -------------------------------------------------------------------
      1        1           0.000151588    0.001277476   -0.000685936
      2        1           0.031043804    0.006466326    0.013980076
      3        1          -0.034024477   -0.010297445   -0.012298378
      4        1          -0.000260043   -0.012222275    0.011027056
      5        8           0.003077774    0.014774641   -0.012023268
 -------------------------------------------------------------------
 Cartesian Forces:  Max     0.034024477 RMS     0.014745442
 Force constants in Cartesian coordinates: 
                1             2             3             4             5 
      1  0.300020D+00
      2 -0.175550D+00  0.122952D+00
      3 -0.168859D+00  0.101921D+00  0.130843D+00
      4 -0.980027D-02  0.456623D-02 -0.914078D-02 -0.415793D-01
      5  0.727916D-02 -0.675999D-02  0.142079D-01 -0.472521D-01  0.713692D-01
      6  0.139948D-01 -0.102514D-01  0.152357D-01 -0.233581D-01 -0.555474D-01
      7 -0.674888D-02  0.105165D-02  0.315118D-02  0.121576D+00 -0.676927D-02
      8  0.665323D-02  0.115243D-01 -0.604362D-02  0.438767D-01 -0.299298D-01
      9  0.442080D-02  0.121197D-01 -0.301850D-02  0.290571D-01  0.327883D-01
     10 -0.417425D-02 -0.282684D-02 -0.345837D-02 -0.162250D-01 -0.243062D-02
     11 -0.562811D-02  0.963282D-03 -0.386922D-02  0.401152D-01 -0.805904D-02
     12 -0.637160D-02 -0.504098D-02 -0.103699D-02 -0.331353D-01 -0.595428D-02
     13 -0.279302D+00  0.172756D+00  0.178304D+00 -0.539521D-01  0.491657D-01
     14  0.167245D+00 -0.128684D+00 -0.106219D+00 -0.413071D-01 -0.266269D-01
     15  0.156816D+00 -0.987553D-01 -0.142028D+00  0.365716D-01  0.145041D-01
                6             7             8             9            10 
      6  0.936641D-01
      7  0.737851D-01 -0.795631D-01
      8  0.665008D-01 -0.834429D-02  0.918112D-01
      9 -0.495558D-03 -0.689661D-01 -0.483947D-01  0.336250D-01
     10  0.499743D-03 -0.150361D-01  0.983973D-02  0.171554D-02  0.102477D+00
     11  0.182305D-01 -0.347015D-01 -0.449063D-01 -0.105170D-01  0.228014D-01
     12 -0.303642D-01  0.468962D-01  0.172772D-01 -0.194185D-01  0.287526D-01
     13 -0.649100D-01 -0.201984D-01 -0.520242D-01  0.337797D-01 -0.670431D-01
     14 -0.189274D-01  0.487640D-01 -0.284994D-01  0.140013D-01 -0.273846D-01
     15 -0.780432D-01 -0.548625D-01 -0.293351D-01 -0.106927D-01 -0.275096D-01
               11            12            13            14            15 
     11  0.182918D-01
     12  0.186800D-01  0.237965D-01
     13 -0.225774D-01 -0.361450D-01  0.420454D+00
     14  0.337092D-01 -0.249650D-01 -0.147318D+00  0.150113D+00
     15 -0.225265D-01  0.270206D-01 -0.111029D+00  0.136116D+00  0.203754D+00
 Leave Link  716 at Wed Mar  6 11:35:25 2024, MaxMem=   104857600 cpu:               0.0 elap:               0.0
 (Enter /opt/g16/l123.exe)
 IRC-IRC-IRC-IRC-IRC-IRC-IRC-IRC-IRC-IRC-IRC-IRC-IRC-IRC-IRC-IRC-IRC-IRC
 Pt  6 Step number   1 out of a maximum of  10
 Using modified Bulirsch-Stoer corrector integration.
   Using distance weighted interpolants to fit PES.
 PreDWI: IReCr0= 2 IReCr1= 1 IReCr2= 1 IReCr3= 1
 Modified Bulirsch-Stoer Extrapolation Cycles:
    EPS =    0.000010000000000
    Cycle     1 NS=    48
      PEZero:  N= 2 I= 1 D=  1.57D-04 Err=  1.09D-06
    Cycle     2 NS=    64 Truncation Error =  0.000001093
 BS completed in    2 cycles and     112 integration steps.
 Maximum DWI energy   std dev =  0.000000179 at pt    13
 Maximum DWI gradient std dev =  0.000246399 at pt    16
 SUMMARY OF CORRECTOR INTEGRATION:
   Predictor End Point Energy =   -77.426686
   Old End Point Energy       =   -77.426686
   Corrected End Point Energy =   -77.426686
   Predictor End-Start Dist.  =     0.030224
   Old End-Start Dist.        =     0.030224
   New End-Start Dist.        =     0.030224
   New End-Old End Dist.      =     0.000009
 CORRECTOR INTEGRATION CONVERGENCE:
   Recorrection delta-x convergence threshold:    0.010000
   Delta-x Convergence Met
 Point Number:   6          Path Number:   1
                    CURRENT STRUCTURE
                Cartesian Coordinates (Ang):                
 ---------------------------------------------------------------------
 Center     Atomic                     Coordinates (Angstroms)
 Number     Number                        X           Y           Z
 ---------------------------------------------------------------------
      1          1                    0.873964   -0.373266   -0.353877
      2          1                   -0.703121    0.214571   -0.647376
      3          1                   -0.887200   -0.637401    0.011756
      4          1                   -1.696192   -0.470084   -0.668248
      5          8                    0.152009    0.079781    0.104453
 ---------------------------------------------------------------------
   CHANGE IN THE REACTION COORDINATE =    0.03022
   NET REACTION COORDINATE UP TO THIS POINT =    0.18135
  # OF POINTS ALONG THE PATH =   6
  # OF STEPS =   1

 Calculating another point on the path.
 Point Number  7 in FORWARD path direction.
 Using LQA Reaction Path Following.
   LQA: T_Est iteration completed in    3 iterations.
 IRC-IRC-IRC-IRC-IRC-IRC-IRC-IRC-IRC-IRC-IRC-IRC-IRC-IRC-IRC-IRC-IRC-IRC
 Leave Link  123 at Wed Mar  6 11:35:25 2024, MaxMem=   104857600 cpu:               0.0 elap:               0.0
 (Enter /opt/g16/l202.exe)
                          Input orientation:                          
 ---------------------------------------------------------------------
 Center     Atomic      Atomic             Coordinates (Angstroms)
 Number     Number       Type             X           Y           Z
 ---------------------------------------------------------------------
      1          1           0        0.874008   -0.372887   -0.354075
      2          1           0       -0.693991    0.216474   -0.643263
      3          1           0       -0.897273   -0.640443    0.008108
      4          1           0       -1.696254   -0.473692   -0.664984
      5          8           0        0.152070    0.080056    0.104230
 ---------------------------------------------------------------------
                    Distance matrix (angstroms):
                    1          2          3          4          5
     1  H    0.000000
     2  H    1.699882   0.000000
     3  H    1.827621   1.095407   0.000000
     4  H    2.590960   1.217100   1.057937   0.000000
     5  O    0.967675   1.137179   1.276510   2.077168   0.000000
 Symmetry turned off by external request.
 Stoichiometry    H4O
 Framework group  C1[X(H4O)]
 Deg. of freedom     9
 Full point group                 C1      NOp   1
 Rotational constants (GHZ):         381.3729070          75.5107944          73.8941336
 Leave Link  202 at Wed Mar  6 11:35:25 2024, MaxMem=   104857600 cpu:               0.0 elap:               0.0
 (Enter /opt/g16/l301.exe)
 Standard basis: STO-3G (5D, 7F)
 Ernie: Thresh=  0.10000D-02 Tol=  0.10000D-05 Strict=F.
     9 basis functions,    27 primitive gaussians,     9 cartesian basis functions
     6 alpha electrons        6 beta electrons
       nuclear repulsion energy        15.6751994834 Hartrees.
 IExCor=    0 DFT=F Ex=HF Corr=None ExCW=0 ScaHFX=  1.000000
 ScaDFX=  1.000000  1.000000  1.000000  1.000000 ScalE2=  1.000000  1.000000
 IRadAn=      5 IRanWt=     -1 IRanGd=            0 ICorTp=0 IEmpDi=  4
 NAtoms=    5 NActive=    5 NUniq=    5 SFac= 1.00D+00 NAtFMM=   60 NAOKFM=F Big=F
 Integral buffers will be    131072 words long.
 Raffenetti 1 integral format.
 Two-electron integral symmetry is turned off.
 Leave Link  301 at Wed Mar  6 11:35:25 2024, MaxMem=   104857600 cpu:               0.0 elap:               0.0
 (Enter /opt/g16/l402.exe)
 External calculation of energy, first and second derivatives.
 Running external command "python3 -u ../pes/h4o_pes.py R"
         input file       "/home/jh-li/scratch/g16/Gau-36137.EIn"
         output file      "/home/jh-li/scratch/g16/Gau-36137.EOu"
         message file     "/home/jh-li/scratch/g16/Gau-36137.EMs"
         fchk file        "/home/jh-li/scratch/g16/Gau-36137.EFC"
         mat. el file     "/home/jh-li/scratch/g16/Gau-36137.EUF"
 Recovered energy= -77.4284297062     dipole=      0.000000000000      0.000000000000      0.000000000000
 NRF= 0 NRA=   0 NVA=   0 HaveQM=F NVQ=       0
 Convergence limit is  0.750E-04 MaxStp= 10000 StMxLn= 3.00D-04 StpMin= 1.00D-06.
 Convergence criteria             0.00011250 0.00007500 0.00045000 0.00030000
  Step  NS  ND Rises OKQ   Scale  Max. Force  RMS Force Max. Disp.  RMS Disp.     Energy   Flag
     1   0   0   F    T  1.00D+00 0.00000000 0.00000000 0.00000000 0.00000000  -77.4284297 ====
 Running external command "python3 -u ../pes/h4o_pes.py R"
         input file       "/home/jh-li/scratch/g16/Gau-36137.EIn"
         output file      "/home/jh-li/scratch/g16/Gau-36137.EOu"
         message file     "/home/jh-li/scratch/g16/Gau-36137.EMs"
         fchk file        "/home/jh-li/scratch/g16/Gau-36137.EFC"
         mat. el file     "/home/jh-li/scratch/g16/Gau-36137.EUF"
 Recovered energy= -77.4284297062     dipole=      0.000000000000      0.000000000000      0.000000000000
 Energy=    -77.4284297     NIter=   0.
 Dipole moment=       0.000000       0.000000       0.000000
 Leave Link  402 at Wed Mar  6 11:35:26 2024, MaxMem=   104857600 cpu:               0.0 elap:               0.4
 (Enter /opt/g16/l716.exe)
 Dipole        = 0.00000000D+00 0.00000000D+00 0.00000000D+00
 -------------------------------------------------------------------
 Center     Atomic                   Forces (Hartrees/Bohr)
 Number     Number              X              Y              Z
 -------------------------------------------------------------------
      1        1           0.000169602    0.001478810   -0.000735164
      2        1           0.035203290    0.007360566    0.015853649
      3        1          -0.039164652   -0.011802519   -0.014214638
      4        1          -0.000174927   -0.013979980    0.012693136
      5        8           0.003955666    0.016941854   -0.013597199
 -------------------------------------------------------------------
 Cartesian Forces:  Max     0.039164652 RMS     0.016865967
 Force constants in Cartesian coordinates: 
                1             2             3             4             5 
      1  0.300069D+00
      2 -0.176148D+00  0.122400D+00
      3 -0.168182D+00  0.101715D+00  0.131394D+00
      4 -0.101259D-01  0.483993D-02 -0.103322D-01 -0.297121D-01
      5  0.781080D-02 -0.690384D-02  0.144642D-01 -0.462538D-01  0.723236D-01
      6  0.146527D-01 -0.102192D-01  0.152577D-01 -0.178102D-01 -0.549953D-01
      7 -0.678571D-02  0.141219D-02  0.336458D-02  0.116681D+00 -0.817824D-02
      8  0.586871D-02  0.112386D-01 -0.594162D-02  0.413123D-01 -0.303120D-01
      9  0.401303D-02  0.116760D-01 -0.281523D-02  0.286288D-01  0.322479D-01
     10 -0.394660D-02 -0.285621D-02 -0.333945D-02 -0.174178D-01 -0.283023D-02
     11 -0.565574D-02  0.850081D-03 -0.363415D-02  0.374888D-01 -0.721746D-02
     12 -0.612937D-02 -0.503376D-02 -0.106929D-02 -0.323807D-01 -0.585281D-02
     13 -0.279215D+00  0.172749D+00  0.178487D+00 -0.594078D-01  0.494433D-01
     14  0.168124D+00 -0.127589D+00 -0.106606D+00 -0.373887D-01 -0.278968D-01
     15  0.155647D+00 -0.981449D-01 -0.142772D+00  0.318883D-01  0.141349D-01
                6             7             8             9            10 
      6  0.978236D-01
[...]
               11            12            13            14            15 
     11  0.481459D-01
     12  0.321929D-01  0.228321D-01
     13  0.242325D-03 -0.790726D-03  0.638224D+00
     14  0.142298D-03 -0.463034D-04  0.901547D-01  0.440587D+00
     15  0.196023D-03  0.127460D-03 -0.285689D-01 -0.169862D+00  0.663672D-01
 Leave Link  716 at Wed Mar  6 11:38:28 2024, MaxMem=   104857600 cpu:               0.0 elap:               0.0
 (Enter /opt/g16/l123.exe)
 IRC-IRC-IRC-IRC-IRC-IRC-IRC-IRC-IRC-IRC-IRC-IRC-IRC-IRC-IRC-IRC-IRC-IRC
 Reaction path inflection point has been passed.
   Previous lowest Hessian eigenvalue=   -0.0000034985
   Current lowest Hessian eigenvalue =    0.0000010945
 Pt329 Step number   1 out of a maximum of  10
 Using modified Bulirsch-Stoer corrector integration.
   Using distance weighted interpolants to fit PES.
 PreDWI: IReCr0= 2 IReCr1= 1 IReCr2= 1 IReCr3= 1
 Modified Bulirsch-Stoer Extrapolation Cycles:
    EPS =    0.000010000000000
    Cycle     1 NS=    48
      PEZero:  N= 2 I= 1 D=  1.57D-04 Err=  9.51D-03
    Cycle     2 NS=    64 Truncation Error =  0.009514240
      PEZero:  N= 3 I= 2 D=  1.57D-04 Err=  7.48D-03
      PEZero:  N= 3 I= 1 D=  3.15D-04 Err=  1.71D-03
    Cycle     3 NS=    96 Truncation Error =  0.001712391
      PEZero:  N= 4 I= 3 D=  7.87D-05 Err=  1.56D-06
      PEZero:  N= 4 I= 2 D=  2.36D-04 Err=  7.48D-03
    Cycle     4 NS=   128 Truncation Error =  0.000001561
 BS completed in    4 cycles and     336 integration steps.
 Maximum DWI energy   std dev =  0.000000317 at pt    35
 Maximum DWI gradient std dev =  0.163765936 at pt    34
 SUMMARY OF CORRECTOR INTEGRATION:
   Predictor End Point Energy =   -77.538046
   Old End Point Energy       =   -77.538046
   Corrected End Point Energy =   -77.538046
   Predictor End-Start Dist.  =     0.030225
   Old End-Start Dist.        =     0.030225
   New End-Start Dist.        =     0.030224
   New End-Old End Dist.      =     0.000236
 CORRECTOR INTEGRATION CONVERGENCE:
   Recorrection delta-x convergence threshold:    0.010000
   Delta-x Convergence Met
 Point Number: 165          Path Number:   2
                    CURRENT STRUCTURE
                Cartesian Coordinates (Ang):                
 ---------------------------------------------------------------------
 Center     Atomic                     Coordinates (Angstroms)
 Number     Number                        X           Y           Z
 ---------------------------------------------------------------------
      1          1                    1.179523   -0.092817    0.195577
      2          1                   -2.040905    0.092803   -1.241199
      3          1                   -0.162458   -0.756067    0.440550
      4          1                   -2.709683   -0.174925   -1.423248
      5          8                    0.234819    0.059220    0.127954
 ---------------------------------------------------------------------
   CHANGE IN THE REACTION COORDINATE =    0.03022
   NET REACTION COORDINATE UP TO THIS POINT =    4.98698
  # OF POINTS ALONG THE PATH = 329
  # OF STEPS =   1

 PES minimum detected on this side of the pathway.
    Magnitude of the gradient =      0.0001472
 Calculation of REVERSE path complete.
 Reaction path calculation complete.
 
 Energies reported relative to the TS energy of         -77.421673
 --------------------------------------------------------------------------
    Summary of reaction path following
 --------------------------------------------------------------------------
                        Energy    RxCoord
   1                   -0.11637  -4.98698
   2                   -0.11637  -4.95676
   3                   -0.11637  -4.92653
   4                   -0.11636  -4.89631
   5                   -0.11636  -4.86609
   6                   -0.11635  -4.83586
   7                   -0.11635  -4.80564
   8                   -0.11634  -4.77541
   9                   -0.11634  -4.74519
  10                   -0.11633  -4.71497
  11                   -0.11633  -4.68474
  12                   -0.11632  -4.65452
  13                   -0.11632  -4.62430
  14                   -0.11631  -4.59407
  15                   -0.11631  -4.56385
  16                   -0.11630  -4.53363
  17                   -0.11630  -4.50340
  18                   -0.11629  -4.47318
  19                   -0.11629  -4.44296
  20                   -0.11628  -4.41274
  21                   -0.11628  -4.38252
  22                   -0.11627  -4.35230
  23                   -0.11626  -4.32208
  24                   -0.11626  -4.29186
  25                   -0.11625  -4.26164
  26                   -0.11624  -4.23142
  27                   -0.11624  -4.20120
  28                   -0.11623  -4.17098
  29                   -0.11622  -4.14076
  30                   -0.11621  -4.11054
  31                   -0.11620  -4.08032
  32                   -0.11619  -4.05010
  33                   -0.11618  -4.01988
  34                   -0.11617  -3.98966
  35                   -0.11615  -3.95944
  36                   -0.11614  -3.92922
  37                   -0.11612  -3.89899
  38                   -0.11611  -3.86877
  39                   -0.11609  -3.83855
  40                   -0.11607  -3.80832
  41                   -0.11605  -3.77810
  42                   -0.11603  -3.74788
  43                   -0.11600  -3.71765
  44                   -0.11598  -3.68743
  45                   -0.11595  -3.65720
  46                   -0.11592  -3.62698
  47                   -0.11589  -3.59675
  48                   -0.11586  -3.56652
  49                   -0.11582  -3.53630
  50                   -0.11578  -3.50607
  51                   -0.11574  -3.47585
  52                   -0.11570  -3.44562
  53                   -0.11565  -3.41540
  54                   -0.11560  -3.38517
  55                   -0.11555  -3.35495
  56                   -0.11550  -3.32472
  57                   -0.11544  -3.29449
  58                   -0.11538  -3.26427
  59                   -0.11532  -3.23404
  60                   -0.11525  -3.20382
  61                   -0.11518  -3.17359
  62                   -0.11510  -3.14337
  63                   -0.11502  -3.11314
  64                   -0.11494  -3.08292
  65                   -0.11485  -3.05269
  66                   -0.11476  -3.02246
  67                   -0.11466  -2.99224
  68                   -0.11456  -2.96201
  69                   -0.11445  -2.93179
  70                   -0.11433  -2.90156
  71                   -0.11421  -2.87134
  72                   -0.11409  -2.84111
  73                   -0.11396  -2.81088
  74                   -0.11382  -2.78066
  75                   -0.11367  -2.75043
  76                   -0.11352  -2.72021
  77                   -0.11336  -2.68998
  78                   -0.11320  -2.65976
  79                   -0.11302  -2.62953
  80                   -0.11284  -2.59930
  81                   -0.11265  -2.56908
  82                   -0.11245  -2.53885
  83                   -0.11224  -2.50863
  84                   -0.11202  -2.47840
  85                   -0.11179  -2.44818
  86                   -0.11155  -2.41795
  87                   -0.11130  -2.38772
  88                   -0.11104  -2.35750
  89                   -0.11077  -2.32727
  90                   -0.11048  -2.29705
  91                   -0.11018  -2.26682
  92                   -0.10987  -2.23660
  93                   -0.10955  -2.20637
  94                   -0.10921  -2.17615
  95                   -0.10885  -2.14592
  96                   -0.10848  -2.11569
  97                   -0.10810  -2.08547
  98                   -0.10769  -2.05524
  99                   -0.10727  -2.02502
 100                   -0.10683  -1.99479
 101                   -0.10638  -1.96457
 102                   -0.10590  -1.93434
 103                   -0.10540  -1.90411
 104                   -0.10488  -1.87389
 105                   -0.10434  -1.84366
 106                   -0.10378  -1.81344
 107                   -0.10319  -1.78321
 108                   -0.10258  -1.75299
 109                   -0.10194  -1.72276
 110                   -0.10127  -1.69254
 111                   -0.10058  -1.66231
 112                   -0.09986  -1.63208
 113                   -0.09910  -1.60186
 114                   -0.09832  -1.57163
 115                   -0.09750  -1.54141
 116                   -0.09665  -1.51118
 117                   -0.09577  -1.48096
 118                   -0.09484  -1.45073
 119                   -0.09388  -1.42050
 120                   -0.09288  -1.39028
 121                   -0.09184  -1.36005
 122                   -0.09075  -1.32983
 123                   -0.08962  -1.29960
 124                   -0.08844  -1.26938
 125                   -0.08722  -1.23915
 126                   -0.08594  -1.20893
 127                   -0.08461  -1.17870
 128                   -0.08322  -1.14848
 129                   -0.08178  -1.11825
 130                   -0.08027  -1.08803
 131                   -0.07870  -1.05781
 132                   -0.07705  -1.02758
 133                   -0.07533  -0.99736
 134                   -0.07352  -0.96715
 135                   -0.07161  -0.93693
 136                   -0.06960  -0.90671
 137                   -0.06746  -0.87649
 138                   -0.06520  -0.84627
 139                   -0.06281  -0.81605
 140                   -0.06030  -0.78583
 141                   -0.05765  -0.75561
 142                   -0.05489  -0.72539
 143                   -0.05203  -0.69517
 144                   -0.04907  -0.66494
 145                   -0.04603  -0.63472
 146                   -0.04294  -0.60449
 147                   -0.03980  -0.57427
 148                   -0.03665  -0.54404
 149                   -0.03350  -0.51382
 150                   -0.03037  -0.48359
 151                   -0.02728  -0.45337
 152                   -0.02426  -0.42314
 153                   -0.02133  -0.39292
 154                   -0.01851  -0.36269
 155                   -0.01581  -0.33247
 156                   -0.01327  -0.30224
 157                   -0.01090  -0.27202
 158                   -0.00873  -0.24180
 159                   -0.00676  -0.21157
 160                   -0.00501  -0.18135
 161                   -0.00351  -0.15112
 162                   -0.00226  -0.12090
 163                   -0.00128  -0.09067
 164                   -0.00057  -0.06045
 165                   -0.00014  -0.03023
 166                    0.00000   0.00000
 167                   -0.00014   0.03023
 168                   -0.00057   0.06045
 169                   -0.00128   0.09067
 170                   -0.00226   0.12090
 171                   -0.00351   0.15112
 172                   -0.00501   0.18135
 173                   -0.00676   0.21157
 174                   -0.00873   0.24179
 175                   -0.01090   0.27202
 176                   -0.01327   0.30224
 177                   -0.01581   0.33247
 178                   -0.01851   0.36269
 179                   -0.02133   0.39292
 180                   -0.02426   0.42314
 181                   -0.02728   0.45337
 182                   -0.03037   0.48359
 183                   -0.03350   0.51382
 184                   -0.03665   0.54404
 185                   -0.03980   0.57427
 186                   -0.04294   0.60449
 187                   -0.04603   0.63472
 188                   -0.04907   0.66494
 189                   -0.05203   0.69517
 190                   -0.05489   0.72539
 191                   -0.05765   0.75561
 192                   -0.06030   0.78583
 193                   -0.06281   0.81605
 194                   -0.06520   0.84627
 195                   -0.06746   0.87649
 196                   -0.06960   0.90671
 197                   -0.07161   0.93693
 198                   -0.07352   0.96715
 199                   -0.07533   0.99736
 200                   -0.07705   1.02758
 201                   -0.07870   1.05781
 202                   -0.08027   1.08803
 203                   -0.08178   1.11825
 204                   -0.08322   1.14848
 205                   -0.08461   1.17870
 206                   -0.08594   1.20893
 207                   -0.08722   1.23915
 208                   -0.08844   1.26938
 209                   -0.08962   1.29960
 210                   -0.09075   1.32983
 211                   -0.09184   1.36005
 212                   -0.09288   1.39028
 213                   -0.09388   1.42050
 214                   -0.09484   1.45073
 215                   -0.09577   1.48096
 216                   -0.09665   1.51118
 217                   -0.09750   1.54141
 218                   -0.09832   1.57163
 219                   -0.09910   1.60186
 220                   -0.09986   1.63208
 221                   -0.10058   1.66231
 222                   -0.10127   1.69253
 223                   -0.10194   1.72276
 224                   -0.10258   1.75299
 225                   -0.10319   1.78321
 226                   -0.10378   1.81344
 227                   -0.10434   1.84366
 228                   -0.10488   1.87389
 229                   -0.10540   1.90411
 230                   -0.10590   1.93434
 231                   -0.10638   1.96457
 232                   -0.10683   1.99479
 233                   -0.10727   2.02502
 234                   -0.10769   2.05524
 235                   -0.10810   2.08547
 236                   -0.10848   2.11569
 237                   -0.10885   2.14592
 238                   -0.10921   2.17614
 239                   -0.10955   2.20637
 240                   -0.10987   2.23660
 241                   -0.11018   2.26682
 242                   -0.11048   2.29705
 243                   -0.11077   2.32727
 244                   -0.11104   2.35750
 245                   -0.11130   2.38772
 246                   -0.11155   2.41795
 247                   -0.11179   2.44818
 248                   -0.11202   2.47840
 249                   -0.11224   2.50863
 250                   -0.11245   2.53885
 251                   -0.11265   2.56908
 252                   -0.11284   2.59930
 253                   -0.11302   2.62953
 254                   -0.11320   2.65976
 255                   -0.11336   2.68998
 256                   -0.11352   2.72021
 257                   -0.11367   2.75043
 258                   -0.11382   2.78066
 259                   -0.11396   2.81088
 260                   -0.11409   2.84111
 261                   -0.11421   2.87134
 262                   -0.11433   2.90156
 263                   -0.11445   2.93179
 264                   -0.11456   2.96201
 265                   -0.11466   2.99224
 266                   -0.11476   3.02246
 267                   -0.11485   3.05269
 268                   -0.11494   3.08291
 269                   -0.11502   3.11314
 270                   -0.11510   3.14337
 271                   -0.11518   3.17359
 272                   -0.11525   3.20382
 273                   -0.11532   3.23404
 274                   -0.11538   3.26427
 275                   -0.11544   3.29449
 276                   -0.11550   3.32472
 277                   -0.11555   3.35495
 278                   -0.11560   3.38517
 279                   -0.11565   3.41540
 280                   -0.11570   3.44562
 281                   -0.11574   3.47585
 282                   -0.11578   3.50607
 283                   -0.11582   3.53630
 284                   -0.11586   3.56652
 285                   -0.11589   3.59675
 286                   -0.11592   3.62697
 287                   -0.11595   3.65720
 288                   -0.11598   3.68743
 289                   -0.11600   3.71765
 290                   -0.11603   3.74787
 291                   -0.11605   3.77810
 292                   -0.11607   3.80832
 293                   -0.11609   3.83855
 294                   -0.11611   3.86877
 295                   -0.11612   3.89899
 296                   -0.11614   3.92922
 297                   -0.11615   3.95944
 298                   -0.11617   3.98966
 299                   -0.11618   4.01988
 300                   -0.11619   4.05010
 301                   -0.11620   4.08032
 302                   -0.11621   4.11054
 303                   -0.11622   4.14076
 304                   -0.11623   4.17098
 305                   -0.11624   4.20120
 306                   -0.11624   4.23142
 307                   -0.11625   4.26164
 308                   -0.11626   4.29186
 309                   -0.11626   4.32208
 310                   -0.11627   4.35230
 311                   -0.11628   4.38252
 312                   -0.11628   4.41274
 313                   -0.11629   4.44296
 314                   -0.11629   4.47318
 315                   -0.11630   4.50340
 316                   -0.11630   4.53363
 317                   -0.11631   4.56385
 318                   -0.11632   4.59407
 319                   -0.11632   4.62430
 320                   -0.11632   4.65453
 321                   -0.11633   4.68475
 322                   -0.11633   4.71498
 323                   -0.11634   4.74520
 324                   -0.11634   4.77542
 325                   -0.11635   4.80565
 326                   -0.11635   4.83587
 327                   -0.11636   4.86610
 328                   -0.11636   4.89632
 329                   -0.11637   4.92655
 330                   -0.11637   4.95677
 --------------------------------------------------------------------------
 
 Total number of points:                  329
 Total number of gradient calculations:   330
 Total number of Hessian calculations:    330
 IRC-IRC-IRC-IRC-IRC-IRC-IRC-IRC-IRC-IRC-IRC-IRC-IRC-IRC-IRC-IRC-IRC-IRC
 Leave Link  123 at Wed Mar  6 11:38:28 2024, MaxMem=   104857600 cpu:               0.0 elap:               0.0
 (Enter /opt/g16/l202.exe)
                          Input orientation:                          
 ---------------------------------------------------------------------
 Center     Atomic      Atomic             Coordinates (Angstroms)
 Number     Number       Type             X           Y           Z
 ---------------------------------------------------------------------
      1          1           0        1.179605   -0.092830    0.195541
      2          1           0       -2.040881    0.092790   -1.241215
      3          1           0       -0.162425   -0.756115    0.440570
      4          1           0       -2.709678   -0.174930   -1.423272
      5          8           0        0.234810    0.059226    0.127958
 ---------------------------------------------------------------------
                    Distance matrix (angstroms):
                    1          2          3          4          5
     1  H    0.000000
     2  H    3.531325   0.000000
     3  H    1.516915   2.660383   0.000000
     4  H    4.213529   0.743040   3.209390   0.000000
     5  O    0.959336   2.656037   0.959324   3.336338   0.000000
 Symmetry turned off by external request.
 Stoichiometry    H4O
 Framework group  C1[X(H4O)]
 Deg. of freedom     9
 Full point group                 C1      NOp   1
 Rotational constants (GHZ):         479.6980085          28.4026047          27.3009008
 Leave Link  202 at Wed Mar  6 11:38:28 2024, MaxMem=   104857600 cpu:               0.0 elap:               0.0
 (Enter /opt/g16/l601.exe)
 Leave Link  601 at Wed Mar  6 11:38:28 2024, MaxMem=   104857600 cpu:               0.0 elap:               0.0
 (Enter /opt/g16/l9999.exe)

 This type of calculation cannot be archived.


 MISERY NO LONGER LOVES COMPANY.  NOWADAYS IT INSISTS ON IT.

                                              -- BAKER'S LAW
 Job cpu time:       0 days  0 hours  0 minutes 57.2 seconds.
 Elapsed time:       0 days  0 hours  2 minutes 58.0 seconds.
 File lengths (MBytes):  RWF=      6 Int=      0 D2E=      0 Chk=      2 Scr=      1
 Normal termination of Gaussian 16 at Wed Mar  6 11:38:28 2024.
