 Entering Gaussian System, Link 0=g16
 Initial command:
 /opt/g16/l1.exe "/home/jh-li/scratch/g16/Gau-285158.inp" -scrdir="/home/jh-li/scratch/g16/"
 Entering Link 1 = /opt/g16/l1.exe PID=    285161.
  
 Copyright (c) 1988-2019, Gaussian, Inc.  All Rights Reserved.
  
 This is part of the Gaussian(R) 16 program.  It is based on
 the Gaussian(R) 09 system (copyright 2009, Gaussian, Inc.),
 the Gaussian(R) 03 system (copyright 2003, Gaussian, Inc.),
 the Gaussian(R) 98 system (copyright 1998, Gaussian, Inc.),
 the Gaussian(R) 94 system (copyright 1995, Gaussian, Inc.),
 the Gaussian 92(TM) system (copyright 1992, Gaussian, Inc.),
 the Gaussian 90(TM) system (copyright 1990, Gaussian, Inc.),
 the Gaussian 88(TM) system (copyright 1988, Gaussian, Inc.),
 the Gaussian 86(TM) system (copyright 1986, Carnegie Mellon
 University), and the Gaussian 82(TM) system (copyright 1983,
 Carnegie Mellon University). Gaussian is a federally registered
 trademark of Gaussian, Inc.
  
 This software contains proprietary and confidential information,
 including trade secrets, belonging to Gaussian, Inc.
  
 This software is provided under written license and may be
 used, copied, transmitted, or stored only in accord with that
 written license.
  
 The following legend is applicable only to US Government
 contracts under FAR:
  
                    RESTRICTED RIGHTS LEGEND
  
 Use, reproduction and disclosure by the US Government is
 subject to restrictions as set forth in subparagraphs (a)
 and (c) of the Commercial Computer Software - Restricted
 Rights clause in FAR 52.227-19.
  
 Gaussian, Inc.
 340 Quinnipiac St., Bldg. 40, Wallingford CT 06492
  
  
 ---------------------------------------------------------------
 Warning -- This program may not be used in any manner that
 competes with the business of Gaussian, Inc. or will provide
 assistance to any competitor of Gaussian, Inc.  The licensee
 of this program is prohibited from giving any competitor of
 Gaussian, Inc. access to this program.  By using this program,
 the user acknowledges that Gaussian, Inc. is engaged in the
 business of creating and licensing software in the field of
 computational chemistry and represents and warrants to the
 licensee that it is not a competitor of Gaussian, Inc. and that
 it will not use this program in any manner prohibited above.
 ---------------------------------------------------------------
  

 Cite this work as:
 Gaussian 16, Revision C.01,
 M. J. Frisch, G. W. Trucks, H. B. Schlegel, G. E. Scuseria, 
 M. A. Robb, J. R. Cheeseman, G. Scalmani, V. Barone, 
 G. A. Petersson, H. Nakatsuji, X. Li, M. Caricato, A. V. Marenich, 
 J. Bloino, B. G. Janesko, R. Gomperts, B. Mennucci, H. P. Hratchian, 
 J. V. Ortiz, A. F. Izmaylov, J. L. Sonnenberg, D. Williams-Young, 
 F. Ding, F. Lipparini, F. Egidi, J. Goings, B. Peng, A. Petrone, 
 T. Henderson, D. Ranasinghe, V. G. Zakrzewski, J. Gao, N. Rega, 
 G. Zheng, W. Liang, M. Hada, M. Ehara, K. Toyota, R. Fukuda, 
 J. Hasegawa, M. Ishida, T. Nakajima, Y. Honda, O. Kitao, H. Nakai, 
 T. Vreven, K. Throssell, J. A. Montgomery, Jr., J. E. Peralta, 
 F. Ogliaro, M. J. Bearpark, J. J. Heyd, E. N. Brothers, K. N. Kudin, 
 V. N. Staroverov, T. A. Keith, R. Kobayashi, J. Normand, 
 K. Raghavachari, A. P. Rendell, J. C. Burant, S. S. Iyengar, 
 J. Tomasi, M. Cossi, J. M. Millam, M. Klene, C. Adamo, R. Cammi, 
 J. W. Ochterski, R. L. Martin, K. Morokuma, O. Farkas, 
 J. B. Foresman, and D. J. Fox, Gaussian, Inc., Wallingford CT, 2019.
 
 ******************************************
 Gaussian 16:  ES64L-G16RevC.01  3-Jul-2019
                14-Apr-2024 
 ******************************************
 %nproc=1
 Will use up to    1 processors via shared memory.
 %chk=SiH4-opt-freq.chk
 ---------------------------------------------------------------
 #p external="python3 -u ../pes/sih4_pes.py" opt=(nomicro,tight)
 ---------------------------------------------------------------
 1/7=10,18=20,19=15,26=1,38=1/1,3;
 2/9=110,12=2,17=6,18=5,40=1/2;
 3/11=9,25=1,30=1,41=9900000,43=2,71=1/1;
 4/20=17,22=1,24=3,68=10,113=1,114=1/2;
 6/7=2,8=2,9=2,10=2/1;
 7/44=-1/16;
 1/7=10,18=20,19=15,26=1/3(2);
 2/9=110/2;
 99//99;
 2/9=110/2;
 3/11=9,25=1,30=1,41=9900000,43=2,71=1/1;
 4/16=2,20=17,22=1,24=3,68=10,113=1,114=1/2;
 7/44=-1/16;
 1/7=10,18=20,19=15,26=1/3(-4);
 2/9=110/2;
 6/7=2,8=2,9=2,10=2/1;
 99/9=10/99;
 Leave Link    1 at Sun Apr 14 23:37:34 2024, MaxMem=           0 cpu:               0.0 elap:               0.0
 (Enter /opt/g16/l101.exe)
 -------------------
 Title Card Required
 -------------------
 Symbolic Z-matrix:
 Charge =  0 Multiplicity = 1
 H                     0.37452   1.344     0.49151 
 H                    -0.00141  -0.00134  -1.47929 
 H                     0.97699  -0.99525   0.49305 
 H                    -1.3501   -0.3474    0.49468 
 Si                   0.        0.        0. 
 
 ITRead=  0  0  0  0  0
 MicOpt= -1 -1 -1 -1 -1
 NAtoms=      5 NQM=        5 NQMF=       0 NMMI=      0 NMMIF=      0
                NMic=       0 NMicF=      0.
                    Isotopes and Nuclear Properties:
 (Nuclear quadrupole moments (NQMom) in fm**2, nuclear magnetic moments (NMagM)
  in nuclear magnetons)

  Atom         1           2           3           4           5
 IAtWgt=           1           1           1           1          28
 AtmWgt=   1.0078250   1.0078250   1.0078250   1.0078250  27.9769284
 NucSpn=           1           1           1           1           0
 AtZEff=  -0.0000000  -0.0000000  -0.0000000  -0.0000000  -0.0000000
 NQMom=    0.0000000   0.0000000   0.0000000   0.0000000   0.0000000
 NMagM=    2.7928460   2.7928460   2.7928460   2.7928460   0.0000000
 AtZNuc=   1.0000000   1.0000000   1.0000000   1.0000000  14.0000000
 Leave Link  101 at Sun Apr 14 23:37:34 2024, MaxMem=   104857600 cpu:               0.1 elap:               0.1
 (Enter /opt/g16/l103.exe)

 GradGradGradGradGradGradGradGradGradGradGradGradGradGradGradGradGradGrad
 Berny optimization.
 Initialization pass.
                           ----------------------------
                           !    Initial Parameters    !
                           ! (Angstroms and Degrees)  !
 --------------------------                            --------------------------
 ! Name  Definition              Value          Derivative Info.                !
 --------------------------------------------------------------------------------
 ! R1    R(1,5)                  1.4793         estimate D2E/DX2                !
 ! R2    R(2,5)                  1.4793         estimate D2E/DX2                !
 ! R3    R(3,5)                  1.4792         estimate D2E/DX2                !
 ! R4    R(4,5)                  1.4792         estimate D2E/DX2                !
 ! A1    A(1,5,2)              109.4708         estimate D2E/DX2                !
 ! A2    A(1,5,3)              109.4706         estimate D2E/DX2                !
 ! A3    A(1,5,4)              109.4718         estimate D2E/DX2                !
 ! A4    A(2,5,3)              109.4714         estimate D2E/DX2                !
 ! A5    A(2,5,4)              109.4714         estimate D2E/DX2                !
 ! A6    A(3,5,4)              109.4713         estimate D2E/DX2                !
 ! D1    D(1,5,3,2)           -119.9992         estimate D2E/DX2                !
 ! D2    D(1,5,4,2)            120.0            estimate D2E/DX2                !
 ! D3    D(1,5,4,3)           -119.9996         estimate D2E/DX2                !
 ! D4    D(2,5,4,3)            120.0004         estimate D2E/DX2                !
 --------------------------------------------------------------------------------
 Trust Radius=3.00D-01 FncErr=1.00D-07 GrdErr=1.00D-07 EigMax=2.50D+02 EigMin=1.00D-04
 Number of steps in this run=     24 maximum allowed number of steps=    100.
 GradGradGradGradGradGradGradGradGradGradGradGradGradGradGradGradGradGrad

 Leave Link  103 at Sun Apr 14 23:37:34 2024, MaxMem=   104857600 cpu:               0.0 elap:               0.0
 (Enter /opt/g16/l202.exe)
                          Input orientation:                          
 ---------------------------------------------------------------------
 Center     Atomic      Atomic             Coordinates (Angstroms)
 Number     Number       Type             X           Y           Z
 ---------------------------------------------------------------------
      1          1           0        0.374520    1.343996    0.491506
      2          1           0       -0.001408   -0.001336   -1.479295
      3          1           0        0.976992   -0.995252    0.493051
      4          1           0       -1.350099   -0.347405    0.494676
      5         14           0       -0.000004   -0.000004   -0.000002
 ---------------------------------------------------------------------
                    Distance matrix (angstroms):
                    1          2          3          4          5
     1  H    0.000000
     2  H    2.415636   0.000000
     3  H    2.415586   2.415633   0.000000
     4  H    2.415607   2.415635   2.415587   0.000000
     5  Si   1.479252   1.479294   1.479237   1.479239   0.000000
 Stoichiometry    H4Si
 Framework group  C1[X(H4Si)]
 Deg. of freedom     9
 Full point group                 C1      NOp   1
 Largest Abelian subgroup         C1      NOp   1
 Largest concise Abelian subgroup C1      NOp   1
                         Standard orientation:                         
 ---------------------------------------------------------------------
 Center     Atomic      Atomic             Coordinates (Angstroms)
 Number     Number       Type             X           Y           Z
 ---------------------------------------------------------------------
      1          1           0        0.472620   -1.195189   -0.732351
      2          1           0       -1.477881   -0.012890    0.063268
      3          1           0        0.552406   -0.012104    1.372168
      4          1           0        0.452815    1.220159   -0.703083
      5         14           0        0.000003    0.000002   -0.000000
 ---------------------------------------------------------------------
 Rotational constants (GHZ):          85.9378583          85.9361305          85.9351453
 Leave Link  202 at Sun Apr 14 23:37:34 2024, MaxMem=   104857600 cpu:               0.0 elap:               0.0
 (Enter /opt/g16/l301.exe)
 Standard basis: STO-3G (5D, 7F)
 Ernie: Thresh=  0.10000D-02 Tol=  0.10000D-05 Strict=F.
 There are    13 symmetry adapted cartesian basis functions of A   symmetry.
 There are    13 symmetry adapted basis functions of A   symmetry.
    13 basis functions,    39 primitive gaussians,    13 cartesian basis functions
     9 alpha electrons        9 beta electrons
       nuclear repulsion energy        21.3473932822 Hartrees.
 IExCor=    0 DFT=F Ex=HF Corr=None ExCW=0 ScaHFX=  1.000000
 ScaDFX=  1.000000  1.000000  1.000000  1.000000 ScalE2=  1.000000  1.000000
 IRadAn=      5 IRanWt=     -1 IRanGd=            0 ICorTp=0 IEmpDi=  4
 NAtoms=    5 NActive=    5 NUniq=    5 SFac= 1.00D+00 NAtFMM=   60 NAOKFM=F Big=F
 Integral buffers will be    131072 words long.
 Raffenetti 1 integral format.
 Two-electron integral symmetry is turned on.
 Leave Link  301 at Sun Apr 14 23:37:34 2024, MaxMem=   104857600 cpu:               0.0 elap:               0.0
 (Enter /opt/g16/l402.exe)
 External calculation of energy and first derivatives.
 Running external command "python3 -u ../pes/sih4_pes.py R"
         input file       "/home/jh-li/scratch/g16/Gau-285161.EIn"
         output file      "/home/jh-li/scratch/g16/Gau-285161.EOu"
         message file     "/home/jh-li/scratch/g16/Gau-285161.EMs"
         fchk file        "/home/jh-li/scratch/g16/Gau-285161.EFC"
         mat. el file     "/home/jh-li/scratch/g16/Gau-285161.EUF"
 initialization done
 Recovered energy= -751.147523674     dipole=      0.000000000000      0.000000000000      0.000000000000
 Energy=    -751.147524     NIter=   0.
 Dipole moment=       0.000000       0.000000       0.000000
 Leave Link  402 at Sun Apr 14 23:37:34 2024, MaxMem=   104857600 cpu:               0.0 elap:               0.2
 (Enter /opt/g16/l601.exe)
 Leave Link  601 at Sun Apr 14 23:37:35 2024, MaxMem=   104857600 cpu:               0.0 elap:               0.0
 (Enter /opt/g16/l716.exe)
 Dipole        = 0.00000000D+00 0.00000000D+00 0.00000000D+00
 ***** Axes restored to original set *****
 -------------------------------------------------------------------
 Center     Atomic                   Forces (Hartrees/Bohr)
 Number     Number              X              Y              Z
 -------------------------------------------------------------------
      1        1           0.000023824    0.000066335    0.000019548
      2        1          -0.000001576    0.000000552   -0.000075247
      3        1           0.000059403   -0.000061550    0.000020384
      4        1          -0.000071295   -0.000024653    0.000021126
      5       14          -0.000011172    0.000020318    0.000016388
 -------------------------------------------------------------------
 Cartesian Forces:  Max     0.000075247 RMS     0.000041385
 Leave Link  716 at Sun Apr 14 23:37:35 2024, MaxMem=   104857600 cpu:               0.0 elap:               0.0
 (Enter /opt/g16/l103.exe)

 GradGradGradGradGradGradGradGradGradGradGradGradGradGradGradGradGradGrad
 Berny optimization.
 FormGI is forming the generalized inverse of G from B-inverse, IUseBI=4.
 Internal  Forces:  Max     0.000087536 RMS     0.000042310
 Search for a local minimum.
 Step number   1 out of a maximum of   24
 All quantities printed in internal units (Hartrees-Bohrs-Radians)
 RMS Force = .42310D-04 SwitMx=.10000D-02 MixMth= 2
 Mixed Optimization -- En-DIIS/RFO-DIIS
 Second derivative matrix not updated -- first step.
 The second derivative matrix:
                          R1        R2        R3        R4        A1
           R1           0.17808
           R2           0.00000   0.17806
           R3           0.00000   0.00000   0.17809
           R4           0.00000   0.00000   0.00000   0.17809
           A1           0.00000   0.00000   0.00000   0.00000   0.16000
           A2           0.00000   0.00000   0.00000   0.00000   0.00000
           A3           0.00000   0.00000   0.00000   0.00000   0.00000
           A4           0.00000   0.00000   0.00000   0.00000   0.00000
           A5           0.00000   0.00000   0.00000   0.00000   0.00000
           A6           0.00000   0.00000   0.00000   0.00000   0.00000
           D1           0.00000   0.00000   0.00000   0.00000   0.00000
           D2           0.00000   0.00000   0.00000   0.00000   0.00000
           D3           0.00000   0.00000   0.00000   0.00000   0.00000
           D4           0.00000   0.00000   0.00000   0.00000   0.00000
                          A2        A3        A4        A5        A6
           A2           0.16000
           A3           0.00000   0.16000
           A4           0.00000   0.00000   0.16000
           A5           0.00000   0.00000   0.00000   0.16000
           A6           0.00000   0.00000   0.00000   0.00000   0.16000
           D1           0.00000   0.00000   0.00000   0.00000   0.00000
           D2           0.00000   0.00000   0.00000   0.00000   0.00000
           D3           0.00000   0.00000   0.00000   0.00000   0.00000
           D4           0.00000   0.00000   0.00000   0.00000   0.00000
                          D1        D2        D3        D4
           D1           0.00379
           D2           0.00000   0.00379
           D3           0.00000   0.00000   0.00379
           D4           0.00000   0.00000   0.00000   0.00379
 ITU=  0
     Eigenvalues ---    0.05185   0.05812   0.08710   0.16000   0.16000
     Eigenvalues ---    0.17806   0.17808   0.17809   0.17809
 RFO step:  Lambda=-1.43158119D-07 EMin= 5.18538972D-02
 Linear search not attempted -- first point.
 Iteration  1 RMS(Cart)=  0.00024280 RMS(Int)=  0.00000001
 Iteration  2 RMS(Cart)=  0.00000001 RMS(Int)=  0.00000000
 ITry= 1 IFail=0 DXMaxC= 4.57D-04 DCOld= 1.00D+10 DXMaxT= 3.00D-01 DXLimC= 3.00D+00 Rises=F
 Variable       Old X    -DE/DX   Delta X   Delta X   Delta X     New X
                                 (Linear)    (Quad)   (Total)
    R1        2.79538   0.00007   0.00000   0.00041   0.00041   2.79579
    R2        2.79546   0.00008   0.00000   0.00043   0.00043   2.79589
    R3        2.79535   0.00009   0.00000   0.00049   0.00049   2.79584
    R4        2.79536   0.00008   0.00000   0.00044   0.00044   2.79579
    A1        1.91063  -0.00000   0.00000  -0.00004  -0.00004   1.91059
    A2        1.91062  -0.00000   0.00000   0.00003   0.00003   1.91065
    A3        1.91064   0.00001   0.00000   0.00012   0.00012   1.91077
    A4        1.91064  -0.00000   0.00000  -0.00008  -0.00008   1.91056
    A5        1.91064  -0.00001   0.00000  -0.00005  -0.00005   1.91058
    A6        1.91063   0.00000   0.00000   0.00002   0.00002   1.91065
    D1       -2.09438   0.00001   0.00000   0.00008   0.00008  -2.09430
    D2        2.09439   0.00000   0.00000  -0.00001  -0.00001   2.09439
    D3       -2.09439  -0.00001   0.00000  -0.00013  -0.00013  -2.09452
    D4        2.09440  -0.00001   0.00000  -0.00012  -0.00012   2.09428
         Item               Value     Threshold  Converged?
 Maximum Force            0.000088     0.000015     NO 
 RMS     Force            0.000042     0.000010     NO 
 Maximum Displacement     0.000457     0.000060     NO 
 RMS     Displacement     0.000243     0.000040     NO 
 Predicted change in Energy=-7.157916D-08
 GradGradGradGradGradGradGradGradGradGradGradGradGradGradGradGradGradGrad

 Leave Link  103 at Sun Apr 14 23:37:35 2024, MaxMem=   104857600 cpu:               0.0 elap:               0.0
 (Enter /opt/g16/l202.exe)
                          Input orientation:                          
 ---------------------------------------------------------------------
 Center     Atomic      Atomic             Coordinates (Angstroms)
 Number     Number       Type             X           Y           Z
 ---------------------------------------------------------------------
      1          1           0        0.374613    1.344234    0.491546
      2          1           0       -0.001409   -0.001337   -1.479473
      3          1           0        0.977159   -0.995425    0.493103
      4          1           0       -1.350341   -0.347496    0.494717
      5         14           0       -0.000022    0.000025    0.000044
 ---------------------------------------------------------------------
                    Distance matrix (angstroms):
                    1          2          3          4          5
     1  H    0.000000
     2  H    2.415961   0.000000
     3  H    2.416002   2.415960   0.000000
     4  H    2.416077   2.415961   2.416003   0.000000
     5  Si   1.479467   1.479519   1.479497   1.479470   0.000000
 Stoichiometry    H4Si
 Framework group  C1[X(H4Si)]
 Deg. of freedom     9
 Full point group                 C1      NOp   1
 RotChk:  IX=0 Diff= 2.31D+00
 Largest Abelian subgroup         C1      NOp   1
 Largest concise Abelian subgroup C1      NOp   1
                         Standard orientation:                         
 ---------------------------------------------------------------------
 Center     Atomic      Atomic             Coordinates (Angstroms)
 Number     Number       Type             X           Y           Z
 ---------------------------------------------------------------------
      1          1           0        1.204105   -0.537243   -0.671084
      2          1           0       -0.004096   -0.422397    1.417919
      3          1           0        0.011880    1.477579   -0.074294
      4          1           0       -1.211894   -0.517878   -0.672291
      5         14           0        0.000000   -0.000004   -0.000018
 ---------------------------------------------------------------------
 Rotational constants (GHZ):          85.9122693          85.9089256          85.9068029
 Leave Link  202 at Sun Apr 14 23:37:35 2024, MaxMem=   104857600 cpu:               0.0 elap:               0.0
 (Enter /opt/g16/l301.exe)
 Standard basis: STO-3G (5D, 7F)
 Ernie: Thresh=  0.10000D-02 Tol=  0.10000D-05 Strict=F.
 There are    13 symmetry adapted cartesian basis functions of A   symmetry.
 There are    13 symmetry adapted basis functions of A   symmetry.
    13 basis functions,    39 primitive gaussians,    13 cartesian basis functions
     9 alpha electrons        9 beta electrons
       nuclear repulsion energy        21.3440338408 Hartrees.
 IExCor=    0 DFT=F Ex=HF Corr=None ExCW=0 ScaHFX=  1.000000
 ScaDFX=  1.000000  1.000000  1.000000  1.000000 ScalE2=  1.000000  1.000000
 IRadAn=      5 IRanWt=     -1 IRanGd=            0 ICorTp=0 IEmpDi=  4
 NAtoms=    5 NActive=    5 NUniq=    5 SFac= 1.00D+00 NAtFMM=   60 NAOKFM=F Big=F
 Integral buffers will be    131072 words long.
 Raffenetti 1 integral format.
 Two-electron integral symmetry is turned on.
 Leave Link  301 at Sun Apr 14 23:37:35 2024, MaxMem=   104857600 cpu:               0.1 elap:               0.1
 (Enter /opt/g16/l402.exe)
 External calculation of energy and first derivatives.
 Running external command "python3 -u ../pes/sih4_pes.py R"
         input file       "/home/jh-li/scratch/g16/Gau-285161.EIn"
         output file      "/home/jh-li/scratch/g16/Gau-285161.EOu"
         message file     "/home/jh-li/scratch/g16/Gau-285161.EMs"
         fchk file        "/home/jh-li/scratch/g16/Gau-285161.EFC"
         mat. el file     "/home/jh-li/scratch/g16/Gau-285161.EUF"
 initialization done
 Recovered energy= -751.147523707     dipole=      0.000000000000      0.000000000000      0.000000000000
 Energy=    -751.147524     NIter=   0.
 Dipole moment=       0.000000       0.000000       0.000000
 Leave Link  402 at Sun Apr 14 23:37:35 2024, MaxMem=   104857600 cpu:               0.0 elap:               0.2
 (Enter /opt/g16/l716.exe)
 Dipole        = 0.00000000D+00 0.00000000D+00 0.00000000D+00
 ***** Axes restored to original set *****
 -------------------------------------------------------------------
 Center     Atomic                   Forces (Hartrees/Bohr)
 Number     Number              X              Y              Z
 -------------------------------------------------------------------
      1        1           0.000001277   -0.000009237   -0.000001398
      2        1           0.000004732   -0.000004635    0.000012515
      3        1          -0.000001138    0.000000829    0.000002157
      4        1           0.000009875   -0.000001304   -0.000001741
      5       14          -0.000016487    0.000016183   -0.000010533
 -------------------------------------------------------------------
 Cartesian Forces:  Max     0.000016487 RMS     0.000008339
 Leave Link  716 at Sun Apr 14 23:37:35 2024, MaxMem=   104857600 cpu:               0.0 elap:               0.0
 (Enter /opt/g16/l103.exe)

 GradGradGradGradGradGradGradGradGradGradGradGradGradGradGradGradGradGrad
 Berny optimization.
 Using GEDIIS/GDIIS optimizer.
 FormGI is forming the generalized inverse of G from B-inverse, IUseBI=4.
 Internal  Forces:  Max     0.000012316 RMS     0.000005787
 Search for a local minimum.
 Step number   2 out of a maximum of   24
 All quantities printed in internal units (Hartrees-Bohrs-Radians)
 RMS Force = .57870D-05 SwitMx=.10000D-02 MixMth= 2
 Mixed Optimization -- En-DIIS/RFO-DIIS
 Swapping is turned off.
 Update second derivatives using D2CorX and points    1    2
 DE= -3.28D-08 DEPred=-7.16D-08 R= 4.58D-01
 Trust test= 4.58D-01 RLast= 9.18D-04 DXMaxT set to 3.00D-01
 The second derivative matrix:
                          R1        R2        R3        R4        A1
           R1           0.18386
           R2           0.00764   0.18778
           R3           0.00149   0.00329   0.17397
           R4           0.00624   0.00825   0.00166   0.18484
           A1           0.00144   0.00144   0.00197   0.00154   0.15979
           A2          -0.00193  -0.00199  -0.00242  -0.00207   0.00020
           A3          -0.00573  -0.00582  -0.00747  -0.00613   0.00069
           A4           0.00625   0.00651   0.00759   0.00670  -0.00056
           A5          -0.00146  -0.00175  -0.00102  -0.00157  -0.00014
           A6           0.00143   0.00160   0.00134   0.00153   0.00001
           D1           0.00176   0.00191   0.00188   0.00189  -0.00007
           D2          -0.00307  -0.00333  -0.00331  -0.00330   0.00013
           D3          -0.00500  -0.00542  -0.00536  -0.00537   0.00019
           D4          -0.00193  -0.00210  -0.00205  -0.00207   0.00007
                          A2        A3        A4        A5        A6
           A2           0.15982
           A3          -0.00064   0.15771
           A4           0.00046   0.00176   0.15883
           A5           0.00022   0.00060  -0.00073   0.16028
           A6          -0.00006  -0.00011   0.00024  -0.00022   0.16014
           D1           0.00002   0.00015   0.00001  -0.00024   0.00013
           D2          -0.00005  -0.00031   0.00002   0.00042  -0.00021
           D3          -0.00007  -0.00046  -0.00000   0.00069  -0.00035
           D4          -0.00002  -0.00015  -0.00003   0.00027  -0.00014
                          D1        D2        D3        D4
           D1           0.00388
           D2          -0.00014   0.00401
           D3          -0.00024   0.00038   0.00444
           D4          -0.00010   0.00016   0.00027   0.00390
 ITU=  0  0
     Eigenvalues ---    0.05195   0.05802   0.08578   0.15912   0.16008
     Eigenvalues ---    0.17377   0.17807   0.17809   0.20257
 En-DIIS/RFO-DIIS/Sim-DIIS IScMMF=       -3 using points:     2    1
 RFO step:  Lambda= 0.00000000D+00.
 NNeg= 0 NGDIIS= 2 SimSw=  2.50D-03 Rises=F DC= -3.28D-08 SmlDif=  1.00D-05
 NRisDI= 0 DoIntr=F SqrtH=F CThrHd= 10.0 CDAdj=  3.0
 RMS Error=  0.4705016029D-04 NUsed= 2 OKEnD=F EnDIS=F
 InvSVX:  RCond= 9.48D-07 Info=           0 Equed=N FErr=  9.83D-16 BErr=  7.01D-17
 DidBck=F Rises=F RFO-DIIS coefs:    0.93875    0.06125
 Iteration  1 RMS(Cart)=  0.00003550 RMS(Int)=  0.00000000
 Iteration  2 RMS(Cart)=  0.00000000 RMS(Int)=  0.00000000
 ITry= 1 IFail=0 DXMaxC= 5.04D-05 DCOld= 1.00D+10 DXMaxT= 3.00D-01 DXLimC= 3.00D+00 Rises=F
 Variable       Old X    -DE/DX   Delta X   Delta X   Delta X     New X
                                 (Linear)    (Quad)   (Total)
    R1        2.79579  -0.00001  -0.00002  -0.00001  -0.00004   2.79575
    R2        2.79589  -0.00001  -0.00003  -0.00003  -0.00006   2.79583
    R3        2.79584  -0.00000  -0.00003   0.00004   0.00001   2.79585
    R4        2.79579  -0.00001  -0.00003  -0.00002  -0.00004   2.79575
    A1        1.91059   0.00000   0.00000   0.00003   0.00004   1.91062
    A2        1.91065  -0.00000  -0.00000  -0.00004  -0.00004   1.91062
    A3        1.91077   0.00000  -0.00001   0.00005   0.00005   1.91081
    A4        1.91056  -0.00000   0.00000  -0.00005  -0.00004   1.91051
    A5        1.91058   0.00000   0.00000   0.00004   0.00004   1.91062
    A6        1.91065  -0.00000  -0.00000  -0.00004  -0.00004   1.91061
    D1       -2.09430   0.00000  -0.00000   0.00001   0.00000  -2.09430
    D2        2.09439   0.00001   0.00000   0.00010   0.00010   2.09449
    D3       -2.09452   0.00000   0.00001   0.00004   0.00005  -2.09447
    D4        2.09428  -0.00000   0.00001  -0.00006  -0.00005   2.09423
         Item               Value     Threshold  Converged?
 Maximum Force            0.000012     0.000015     YES
 RMS     Force            0.000006     0.000010     YES
 Maximum Displacement     0.000050     0.000060     YES
 RMS     Displacement     0.000035     0.000040     YES
 Predicted change in Energy=-1.627102D-09
 Optimization completed.
    -- Stationary point found.
                           ----------------------------
                           !   Optimized Parameters   !
                           ! (Angstroms and Degrees)  !
 --------------------------                            --------------------------
 ! Name  Definition              Value          Derivative Info.                !
 --------------------------------------------------------------------------------
 ! R1    R(1,5)                  1.4795         -DE/DX =    0.0                 !
 ! R2    R(2,5)                  1.4795         -DE/DX =    0.0                 !
 ! R3    R(3,5)                  1.4795         -DE/DX =    0.0                 !
 ! R4    R(4,5)                  1.4795         -DE/DX =    0.0                 !
 ! A1    A(1,5,2)              109.4685         -DE/DX =    0.0                 !
 ! A2    A(1,5,3)              109.4724         -DE/DX =    0.0                 !
 ! A3    A(1,5,4)              109.4789         -DE/DX =    0.0                 !
 ! A4    A(2,5,3)              109.4668         -DE/DX =    0.0                 !
 ! A5    A(2,5,4)              109.4683         -DE/DX =    0.0                 !
 ! A6    A(3,5,4)              109.4723         -DE/DX =    0.0                 !
 ! D1    D(1,5,3,2)           -119.9947         -DE/DX =    0.0                 !
 ! D2    D(1,5,4,2)            119.9996         -DE/DX =    0.0                 !
 ! D3    D(1,5,4,3)           -120.0069         -DE/DX =    0.0                 !
 ! D4    D(2,5,4,3)            119.9935         -DE/DX =    0.0                 !
 --------------------------------------------------------------------------------
 Largest change from initial coordinates is atom    4       0.000 Angstoms.
 GradGradGradGradGradGradGradGradGradGradGradGradGradGradGradGradGradGrad

 Leave Link  103 at Sun Apr 14 23:37:35 2024, MaxMem=   104857600 cpu:               0.0 elap:               0.0
 (Enter /opt/g16/l202.exe)
                          Input orientation:                          
 ---------------------------------------------------------------------
 Center     Atomic      Atomic             Coordinates (Angstroms)
 Number     Number       Type             X           Y           Z
 ---------------------------------------------------------------------
      1          1           0        0.374613    1.344234    0.491546
      2          1           0       -0.001409   -0.001337   -1.479473
      3          1           0        0.977159   -0.995425    0.493103
      4          1           0       -1.350341   -0.347496    0.494717
      5         14           0       -0.000022    0.000025    0.000044
 ---------------------------------------------------------------------
                    Distance matrix (angstroms):
                    1          2          3          4          5
     1  H    0.000000
     2  H    2.415961   0.000000
     3  H    2.416002   2.415960   0.000000
     4  H    2.416077   2.415961   2.416003   0.000000
     5  Si   1.479467   1.479519   1.479497   1.479470   0.000000
 Stoichiometry    H4Si
 Framework group  C1[X(H4Si)]
 Deg. of freedom     9
 Full point group                 C1      NOp   1
 RotChk:  IX=0 Diff= 2.35D-11
 Largest Abelian subgroup         C1      NOp   1
 Largest concise Abelian subgroup C1      NOp   1
                         Standard orientation:                         
 ---------------------------------------------------------------------
 Center     Atomic      Atomic             Coordinates (Angstroms)
 Number     Number       Type             X           Y           Z
 ---------------------------------------------------------------------
      1          1           0        1.204105   -0.537243   -0.671084
      2          1           0       -0.004096   -0.422397    1.417919
      3          1           0        0.011880    1.477579   -0.074294
      4          1           0       -1.211894   -0.517878   -0.672291
      5         14           0        0.000000   -0.000004   -0.000018
 ---------------------------------------------------------------------
 Rotational constants (GHZ):          85.9122693          85.9089256          85.9068029
 Leave Link  202 at Sun Apr 14 23:37:35 2024, MaxMem=   104857600 cpu:               0.0 elap:               0.0
 (Enter /opt/g16/l601.exe)
 Leave Link  601 at Sun Apr 14 23:37:35 2024, MaxMem=   104857600 cpu:               0.0 elap:               0.0
 (Enter /opt/g16/l9999.exe)
 Unable to Open any file for archive entry.
 1\1\GINC-DESKTOP-1D9QDE1\FOpt\External='python3 -u ../pes/sih4_pes.py'
 \ZDO\H4Si1\JH-LI\14-Apr-2024\0\\#p external="python3 -u ../pes/sih4_pe
 s.py" opt=(nomicro,tight)\\Title Card Required\\0,1\H,0.3746130909,1.3
 44233504,0.4915458206\H,-0.0014088418,-0.0013373335,-1.4794732977\H,0.
 9771591387,-0.9954247381,0.4931028689\H,-1.3503409767,-0.3474962506,0.
 4947165394\Si,-0.0000224112,0.0000248181,0.0000440789\\Version=ES64L-G
 16RevC.01\HF=-751.1475237\RMSD=0.000e+00\RMSF=8.339e-06\Dipole=0.,0.,0
 .\PG=C01 [X(H4Si1)]\\@
 The archive entry for this job was punched.


 ALMOST ANYTHING IS EASIER TO GET INTO THAN OUT OF.

                         -- AGNES ALLEN'S LAW FROM
                PAUL DICKSON'S "THE OFFICIAL RULES"
 Job cpu time:       0 days  0 hours  0 minutes  0.7 seconds.
 Elapsed time:       0 days  0 hours  0 minutes  0.9 seconds.
 File lengths (MBytes):  RWF=      6 Int=      0 D2E=      0 Chk=      1 Scr=      1
 Normal termination of Gaussian 16 at Sun Apr 14 23:37:35 2024.
 Initial command:
 /opt/g16/l1.exe "/home/jh-li/scratch/g16/Gau-285158.inp" -scrdir="/home/jh-li/scratch/g16/"
 Entering Link 1 = /opt/g16/l1.exe PID=    285182.
  
 Copyright (c) 1988-2019, Gaussian, Inc.  All Rights Reserved.
  
 This is part of the Gaussian(R) 16 program.  It is based on
 the Gaussian(R) 09 system (copyright 2009, Gaussian, Inc.),
 the Gaussian(R) 03 system (copyright 2003, Gaussian, Inc.),
 the Gaussian(R) 98 system (copyright 1998, Gaussian, Inc.),
 the Gaussian(R) 94 system (copyright 1995, Gaussian, Inc.),
 the Gaussian 92(TM) system (copyright 1992, Gaussian, Inc.),
 the Gaussian 90(TM) system (copyright 1990, Gaussian, Inc.),
 the Gaussian 88(TM) system (copyright 1988, Gaussian, Inc.),
 the Gaussian 86(TM) system (copyright 1986, Carnegie Mellon
 University), and the Gaussian 82(TM) system (copyright 1983,
 Carnegie Mellon University). Gaussian is a federally registered
 trademark of Gaussian, Inc.
  
 This software contains proprietary and confidential information,
 including trade secrets, belonging to Gaussian, Inc.
  
 This software is provided under written license and may be
 used, copied, transmitted, or stored only in accord with that
 written license.
  
 The following legend is applicable only to US Government
 contracts under FAR:
  
                    RESTRICTED RIGHTS LEGEND
  
 Use, reproduction and disclosure by the US Government is
 subject to restrictions as set forth in subparagraphs (a)
 and (c) of the Commercial Computer Software - Restricted
 Rights clause in FAR 52.227-19.
  
 Gaussian, Inc.
 340 Quinnipiac St., Bldg. 40, Wallingford CT 06492
  
  
 ---------------------------------------------------------------
 Warning -- This program may not be used in any manner that
 competes with the business of Gaussian, Inc. or will provide
 assistance to any competitor of Gaussian, Inc.  The licensee
 of this program is prohibited from giving any competitor of
 Gaussian, Inc. access to this program.  By using this program,
 the user acknowledges that Gaussian, Inc. is engaged in the
 business of creating and licensing software in the field of
 computational chemistry and represents and warrants to the
 licensee that it is not a competitor of Gaussian, Inc. and that
 it will not use this program in any manner prohibited above.
 ---------------------------------------------------------------
  

 Cite this work as:
 Gaussian 16, Revision C.01,
 M. J. Frisch, G. W. Trucks, H. B. Schlegel, G. E. Scuseria, 
 M. A. Robb, J. R. Cheeseman, G. Scalmani, V. Barone, 
 G. A. Petersson, H. Nakatsuji, X. Li, M. Caricato, A. V. Marenich, 
 J. Bloino, B. G. Janesko, R. Gomperts, B. Mennucci, H. P. Hratchian, 
 J. V. Ortiz, A. F. Izmaylov, J. L. Sonnenberg, D. Williams-Young, 
 F. Ding, F. Lipparini, F. Egidi, J. Goings, B. Peng, A. Petrone, 
 T. Henderson, D. Ranasinghe, V. G. Zakrzewski, J. Gao, N. Rega, 
 G. Zheng, W. Liang, M. Hada, M. Ehara, K. Toyota, R. Fukuda, 
 J. Hasegawa, M. Ishida, T. Nakajima, Y. Honda, O. Kitao, H. Nakai, 
 T. Vreven, K. Throssell, J. A. Montgomery, Jr., J. E. Peralta, 
 F. Ogliaro, M. J. Bearpark, J. J. Heyd, E. N. Brothers, K. N. Kudin, 
 V. N. Staroverov, T. A. Keith, R. Kobayashi, J. Normand, 
 K. Raghavachari, A. P. Rendell, J. C. Burant, S. S. Iyengar, 
 J. Tomasi, M. Cossi, J. M. Millam, M. Klene, C. Adamo, R. Cammi, 
 J. W. Ochterski, R. L. Martin, K. Morokuma, O. Farkas, 
 J. B. Foresman, and D. J. Fox, Gaussian, Inc., Wallingford CT, 2019.
 
 ******************************************
 Gaussian 16:  ES64L-G16RevC.01  3-Jul-2019
                14-Apr-2024 
 ******************************************
 %nproc=1
 Will use up to    1 processors via shared memory.
 %chk=SiH4-opt-freq.chk
 --------------------------------------------------------------
 #p external="python3 -u ../pes/sih4_pes.py" freq geom=allcheck
 --------------------------------------------------------------
 1/10=4,18=10,29=7,30=1,38=1/1,3;
 2/12=2,40=1/2;
 3/11=9,14=-4,25=1,30=1,41=9900000,43=2,71=2,140=1/1;
 4/20=17,22=2,24=3,113=1,114=1/2;
 6/7=2,8=2,9=2,10=2/1;
 7/8=1,25=1,44=-1/16;
 1/10=4,18=10,30=1/3;
 99//99;
 Leave Link    1 at Sun Apr 14 23:37:35 2024, MaxMem=           0 cpu:               0.0 elap:               0.0
 (Enter /opt/g16/l101.exe)
 Structure from the checkpoint file:  "SiH4-opt-freq.chk"
 -------------------
 Title Card Required
 -------------------
 Charge =  0 Multiplicity = 1
 Redundant internal coordinates found in file.  (old form).
 H,0,0.3746130909,1.344233504,0.4915458206
 H,0,-0.0014088418,-0.0013373335,-1.4794732977
 H,0,0.9771591387,-0.9954247381,0.4931028689
 H,0,-1.3503409767,-0.3474962506,0.4947165394
 Si,0,-0.0000224112,0.0000248181,0.0000440789
 Recover connectivity data from disk.
 ITRead=  0  0  0  0  0
 MicOpt= -1 -1 -1 -1 -1
 NAtoms=      5 NQM=        5 NQMF=       0 NMMI=      0 NMMIF=      0
                NMic=       0 NMicF=      0.
                    Isotopes and Nuclear Properties:
 (Nuclear quadrupole moments (NQMom) in fm**2, nuclear magnetic moments (NMagM)
  in nuclear magnetons)

  Atom         1           2           3           4           5
 IAtWgt=           1           1           1           1          28
 AtmWgt=   1.0078250   1.0078250   1.0078250   1.0078250  27.9769284
 NucSpn=           1           1           1           1           0
 AtZEff=   1.0000000   1.0000000   1.0000000   1.0000000  12.2500000
 NQMom=    0.0000000   0.0000000   0.0000000   0.0000000   0.0000000
 NMagM=    2.7928460   2.7928460   2.7928460   2.7928460   0.0000000
 AtZNuc=   1.0000000   1.0000000   1.0000000   1.0000000  14.0000000
 Leave Link  101 at Sun Apr 14 23:37:35 2024, MaxMem=   104857600 cpu:               0.1 elap:               0.1
 (Enter /opt/g16/l103.exe)

 GradGradGradGradGradGradGradGradGradGradGradGradGradGradGradGradGradGrad
 Berny optimization.
 Initialization pass.
 Trust Radius=3.00D-01 FncErr=1.00D-07 GrdErr=1.00D-07 EigMax=2.50D+02 EigMin=1.00D-04
 Number of steps in this run=      2 maximum allowed number of steps=      2.
 GradGradGradGradGradGradGradGradGradGradGradGradGradGradGradGradGradGrad

 Leave Link  103 at Sun Apr 14 23:37:35 2024, MaxMem=   104857600 cpu:               0.0 elap:               0.0
 (Enter /opt/g16/l202.exe)
                          Input orientation:                          
 ---------------------------------------------------------------------
 Center     Atomic      Atomic             Coordinates (Angstroms)
 Number     Number       Type             X           Y           Z
 ---------------------------------------------------------------------
      1          1           0        0.374613    1.344234    0.491546
      2          1           0       -0.001409   -0.001337   -1.479473
      3          1           0        0.977159   -0.995425    0.493103
      4          1           0       -1.350341   -0.347496    0.494717
      5         14           0       -0.000022    0.000025    0.000044
 ---------------------------------------------------------------------
                    Distance matrix (angstroms):
                    1          2          3          4          5
     1  H    0.000000
     2  H    2.415961   0.000000
     3  H    2.416002   2.415960   0.000000
     4  H    2.416077   2.415961   2.416003   0.000000
     5  Si   1.479467   1.479519   1.479497   1.479470   0.000000
 Stoichiometry    H4Si
 Framework group  C1[X(H4Si)]
 Deg. of freedom     9
 Full point group                 C1      NOp   1
 RotChk:  IX=0 Diff= 9.05D-12
 Largest Abelian subgroup         C1      NOp   1
 Largest concise Abelian subgroup C1      NOp   1
                         Standard orientation:                         
 ---------------------------------------------------------------------
 Center     Atomic      Atomic             Coordinates (Angstroms)
 Number     Number       Type             X           Y           Z
 ---------------------------------------------------------------------
      1          1           0        1.204105   -0.537243   -0.671084
      2          1           0       -0.004096   -0.422397    1.417919
      3          1           0        0.011880    1.477579   -0.074294
      4          1           0       -1.211894   -0.517878   -0.672291
      5         14           0        0.000000   -0.000004   -0.000018
 ---------------------------------------------------------------------
 Rotational constants (GHZ):          85.9122693          85.9089256          85.9068029
 Leave Link  202 at Sun Apr 14 23:37:35 2024, MaxMem=   104857600 cpu:               0.0 elap:               0.0
 (Enter /opt/g16/l301.exe)
 Standard basis: STO-3G (5D, 7F)
 Ernie: Thresh=  0.10000D-02 Tol=  0.10000D-05 Strict=F.
 There are    13 symmetry adapted cartesian basis functions of A   symmetry.
 There are    13 symmetry adapted basis functions of A   symmetry.
    13 basis functions,    39 primitive gaussians,    13 cartesian basis functions
     9 alpha electrons        9 beta electrons
       nuclear repulsion energy        21.3440338408 Hartrees.
 IExCor=    0 DFT=F Ex=HF Corr=None ExCW=0 ScaHFX=  1.000000
 ScaDFX=  1.000000  1.000000  1.000000  1.000000 ScalE2=  1.000000  1.000000
 IRadAn=      5 IRanWt=     -1 IRanGd=            0 ICorTp=0 IEmpDi=  4
 NAtoms=    5 NActive=    5 NUniq=    5 SFac= 1.00D+00 NAtFMM=   60 NAOKFM=F Big=F
 Integral buffers will be    131072 words long.
 Raffenetti 1 integral format.
 Two-electron integral symmetry is turned on.
 Leave Link  301 at Sun Apr 14 23:37:35 2024, MaxMem=   104857600 cpu:               0.0 elap:               0.0
 (Enter /opt/g16/l402.exe)
 External calculation of energy, first and second derivatives.
 Running external command "python3 -u ../pes/sih4_pes.py R"
         input file       "/home/jh-li/scratch/g16/Gau-285182.EIn"
         output file      "/home/jh-li/scratch/g16/Gau-285182.EOu"
         message file     "/home/jh-li/scratch/g16/Gau-285182.EMs"
         fchk file        "/home/jh-li/scratch/g16/Gau-285182.EFC"
         mat. el file     "/home/jh-li/scratch/g16/Gau-285182.EUF"
 initialization done
 Recovered energy= -751.147523707     dipole=      0.000000000000      0.000000000000      0.000000000000
 Energy=    -751.147524     NIter=   0.
 Dipole moment=       0.000000       0.000000       0.000000
 Leave Link  402 at Sun Apr 14 23:37:36 2024, MaxMem=   104857600 cpu:               0.0 elap:               0.9
 (Enter /opt/g16/l601.exe)
 Leave Link  601 at Sun Apr 14 23:37:36 2024, MaxMem=   104857600 cpu:               0.0 elap:               0.0
 (Enter /opt/g16/l716.exe)
 Dipole        = 0.00000000D+00 0.00000000D+00 0.00000000D+00
 Full mass-weighted force constant matrix:
 Low frequencies ---  -11.7169   -0.1821    0.1057    0.4995   14.5637   15.8903
 Low frequencies ---  923.2553  923.3121  923.4507
 Diagonal vibrational polarizability:
        0.0000000       0.0000000       0.0000000
 Harmonic frequencies (cm**-1), IR intensities (KM/Mole), Raman scattering
 activities (A**4/AMU), depolarization ratios for plane and unpolarized
 incident light, reduced masses (AMU), force constants (mDyne/A),
 and normal coordinates:
                      1                      2                      3
                      A                      A                      A
 Frequencies --    923.2553               923.3121               923.4507
 Red. masses --      1.0952                 1.0952                 1.0952
 Frc consts  --      0.5500                 0.5501                 0.5503
 IR Inten    --      0.0000                 0.0000                 0.0000
  Atom  AN      X      Y      Z        X      Y      Z        X      Y      Z
     1   1     0.31   0.21   0.34     0.03   0.50  -0.35     0.18   0.18   0.24
     2   1     0.01   0.46   0.11     0.01   0.36   0.14     0.61  -0.01  -0.00
     3   1     0.00   0.01   0.52     0.01  -0.05  -0.32     0.61  -0.00   0.00
     4   1    -0.30   0.22   0.33    -0.01   0.49  -0.36     0.18  -0.20  -0.24
     5  14    -0.00  -0.03  -0.05    -0.00  -0.05   0.03    -0.06   0.00  -0.00
                      4                      5                      6
                      A                      A                      A
 Frequencies --    974.6372               974.7893              2273.4186
 Red. masses --      1.0078                 1.0078                 1.0078
 Frc consts  --      0.5641                 0.5642                 3.0690
 IR Inten    --      0.0000                 0.0000                 0.0000
  Atom  AN      X      Y      Z        X      Y      Z        X      Y      Z
     1   1    -0.29  -0.25  -0.32    -0.00   0.39  -0.31     0.41  -0.18  -0.23
     2   1     0.01   0.48   0.14    -0.50   0.01   0.00    -0.00  -0.14   0.48
     3   1    -0.01   0.03   0.50     0.50  -0.00   0.01     0.00   0.48  -0.02
     4   1     0.29  -0.25  -0.32     0.00  -0.40   0.30    -0.42  -0.18  -0.23
     5  14    -0.00  -0.00  -0.00     0.00   0.00  -0.00     0.00   0.00   0.00
                      7                      8                      9
                      A                      A                      A
 Frequencies --   2280.3412              2280.3894              2280.6124
 Red. masses --      1.0516                 1.0516                 1.0516
 Frc consts  --      3.2218                 3.2219                 3.2225
 IR Inten    --      0.0000                 0.0000                 0.0000
  Atom  AN      X      Y      Z        X      Y      Z        X      Y      Z
     1   1     0.55  -0.25  -0.32    -0.38   0.17   0.20    -0.20   0.08   0.11
     2   1    -0.01  -0.01   0.03    -0.00  -0.23   0.75     0.00   0.09  -0.34
     3   1    -0.01   0.01  -0.00     0.00   0.08  -0.02     0.01   0.87  -0.04
     4   1     0.59   0.26   0.33     0.33   0.14   0.17     0.20   0.07   0.11
     5  14    -0.04  -0.00  -0.00     0.00  -0.01  -0.04    -0.00  -0.04   0.01

 -------------------
 - Thermochemistry -
 -------------------
 Temperature   298.150 Kelvin.  Pressure   1.00000 Atm.
 Atom     1 has atomic number  1 and mass   1.00783
 Atom     2 has atomic number  1 and mass   1.00783
 Atom     3 has atomic number  1 and mass   1.00783
 Atom     4 has atomic number  1 and mass   1.00783
 Atom     5 has atomic number 14 and mass  27.97693
 Molecular mass:    32.00823 amu.
 Principal axes and moments of inertia in atomic units:
                           1         2         3
     Eigenvalues --    21.00679  21.00761  21.00813
           X            1.00000   0.00000   0.00000
           Y           -0.00000   1.00000  -0.00000
           Z           -0.00000   0.00000   1.00000
 This molecule is an asymmetric top.
 Rotational symmetry number  1.
 Rotational temperatures (Kelvin)      4.12314     4.12298     4.12288
 Rotational constants (GHZ):          85.91227    85.90893    85.90680
 Zero-point vibrational energy      82746.9 (Joules/Mol)
                                   19.77699 (Kcal/Mol)
 Vibrational temperatures:   1328.36  1328.44  1328.64  1402.29  1402.50
          (Kelvin)           3270.94  3280.90  3280.97  3281.29
 
 Zero-point correction=                           0.031517 (Hartree/Particle)
 Thermal correction to Energy=                    0.034579
 Thermal correction to Enthalpy=                  0.035524
 Thermal correction to Gibbs Free Energy=         0.009965
 Sum of electronic and zero-point Energies=           -751.116007
 Sum of electronic and thermal Energies=              -751.112944
 Sum of electronic and thermal Enthalpies=            -751.112000
 Sum of electronic and thermal Free Energies=         -751.137558
 
                     E (Thermal)             CV                S
                      KCal/Mol        Cal/Mol-Kelvin    Cal/Mol-Kelvin
 Total                   21.699              8.196             53.792
 Electronic               0.000              0.000              0.000
 Translational            0.889              2.981             36.322
 Rotational               0.889              2.981             16.879
 Vibrational             19.921              2.234              0.590
                       Q            Log10(Q)             Ln(Q)
 Total Bot       0.260779D-04         -4.583728        -10.554424
 Total V=0       0.818290D+10          9.912907         22.825313
 Vib (Bot)       0.336138D-14        -14.473482        -33.326424
 Vib (V=0)       0.105476D+01          0.023153          0.053313
 Electronic      0.100000D+01          0.000000          0.000000
 Translational   0.711781D+07          6.852346         15.778111
 Rotational      0.108995D+04          3.037407          6.993889
 ***** Axes restored to original set *****
 -------------------------------------------------------------------
 Center     Atomic                   Forces (Hartrees/Bohr)
 Number     Number              X              Y              Z
 -------------------------------------------------------------------
      1        1           0.000001277   -0.000009238   -0.000001398
      2        1           0.000004732   -0.000004635    0.000012515
      3        1          -0.000001138    0.000000829    0.000002157
      4        1           0.000009875   -0.000001304   -0.000001741
      5       14          -0.000016487    0.000016183   -0.000010533
 -------------------------------------------------------------------
 Cartesian Forces:  Max     0.000016487 RMS     0.000008339
 Force constants in Cartesian coordinates: 
                1             2             3             4             5 
      1  0.312346D-01
      2  0.394221D-01  0.161675D+00
      3  0.144211D-01  0.517080D-01  0.391562D-01
      4  0.210631D-02 -0.107646D-03 -0.347884D-02  0.202669D-01
      5 -0.115735D-03  0.175353D-02 -0.124816D-01  0.619558D-05  0.202666D-01
      6 -0.232039D-03 -0.819457D-03 -0.312530D-02  0.153337D-03  0.164961D-03
      7  0.431000D-02 -0.176972D-02  0.117318D-02  0.193253D-02  0.208978D-03
      8  0.812233D-02 -0.719990D-02  0.391251D-02  0.193082D-03  0.194283D-02
      9  0.290751D-02 -0.284622D-02  0.362586D-02 -0.907393D-02  0.924224D-02
     10 -0.157734D-02 -0.162679D-02  0.102314D-02  0.177433D-02 -0.931528D-04
     11 -0.115102D-01 -0.131629D-02  0.396923D-02 -0.853528D-04  0.211685D-02
     12 -0.395746D-02 -0.933617D-03  0.363036D-02  0.125379D-01  0.322599D-02
     13 -0.360701D-01 -0.359180D-01 -0.131387D-01 -0.260773D-01 -0.661669D-05
     14 -0.359178D-01 -0.154908D+00 -0.471080D-01 -0.663249D-05 -0.260771D-01
     15 -0.131384D-01 -0.471085D-01 -0.432835D-01 -0.138325D-03 -0.151706D-03
                6             7             8             9            10 
      6  0.191587D+00
      7 -0.597697D-03  0.950236D-01
      8  0.599544D-03 -0.761511D-01  0.978454D-01
      9 -0.314091D-02  0.377187D-01 -0.384240D-01  0.393006D-01
     10  0.814827D-03 -0.707416D-02 -0.154524D-02  0.281204D-02  0.162963D+00
     11  0.206590D-03  0.833091D-02  0.417467D-02 -0.297893D-02  0.367348D-01
     12 -0.315670D-02 -0.392984D-02 -0.109498D-02  0.363544D-02 -0.522776D-01
     13 -0.138160D-03 -0.941890D-01  0.693804D-01 -0.343641D-01 -0.156081D+00
     14 -0.151909D-03  0.693804D-01 -0.967600D-01  0.350067D-01 -0.334697D-01
     15 -0.182160D+00 -0.343640D-01  0.350066D-01 -0.434183D-01  0.476273D-01
               11            12            13            14            15 
     11  0.297028D-01
     12 -0.134644D-01  0.394009D-01
     13 -0.334695D-01  0.476268D-01  0.312404D+00
     14 -0.346746D-01  0.122672D-01  0.139753D-04  0.312406D+00
     15  0.122669D-01 -0.435063D-01  0.132216D-04 -0.130606D-04  0.312354D+00
 Leave Link  716 at Sun Apr 14 23:37:36 2024, MaxMem=   104857600 cpu:               0.0 elap:               0.0
 (Enter /opt/g16/l103.exe)

 GradGradGradGradGradGradGradGradGradGradGradGradGradGradGradGradGradGrad
 Berny optimization.
 Search for a local minimum.
 Step number   1 out of a maximum of    2
 All quantities printed in internal units (Hartrees-Bohrs-Radians)
 Second derivative matrix not updated -- analytic derivatives used.
 The second derivative matrix:
                          X1        Y1        Z1        X2        Y2
           X1           0.03123
           Y1           0.03942   0.16168
           Z1           0.01442   0.05171   0.03916
           X2           0.00211  -0.00011  -0.00348   0.02027
           Y2          -0.00012   0.00175  -0.01248   0.00001   0.02027
           Z2          -0.00023  -0.00082  -0.00313   0.00015   0.00016
           X3           0.00431  -0.00177   0.00117   0.00193   0.00021
           Y3           0.00812  -0.00720   0.00391   0.00019   0.00194
           Z3           0.00291  -0.00285   0.00363  -0.00907   0.00924
           X4          -0.00158  -0.00163   0.00102   0.00177  -0.00009
           Y4          -0.01151  -0.00132   0.00397  -0.00009   0.00212
           Z4          -0.00396  -0.00093   0.00363   0.01254   0.00323
           X5          -0.03607  -0.03592  -0.01314  -0.02608  -0.00001
           Y5          -0.03592  -0.15491  -0.04711  -0.00001  -0.02608
           Z5          -0.01314  -0.04711  -0.04328  -0.00014  -0.00015
                          Z2        X3        Y3        Z3        X4
           Z2           0.19159
           X3          -0.00060   0.09502
           Y3           0.00060  -0.07615   0.09785
           Z3          -0.00314   0.03772  -0.03842   0.03930
           X4           0.00081  -0.00707  -0.00155   0.00281   0.16296
           Y4           0.00021   0.00833   0.00417  -0.00298   0.03673
           Z4          -0.00316  -0.00393  -0.00109   0.00364  -0.05228
           X5          -0.00014  -0.09419   0.06938  -0.03436  -0.15608
           Y5          -0.00015   0.06938  -0.09676   0.03501  -0.03347
           Z5          -0.18216  -0.03436   0.03501  -0.04342   0.04763
                          Y4        Z4        X5        Y5        Z5
           Y4           0.02970
           Z4          -0.01346   0.03940
           X5          -0.03347   0.04763   0.31240
           Y5          -0.03467   0.01227   0.00001   0.31241
           Z5           0.01227  -0.04351   0.00001  -0.00001   0.31235
 ITU=  0
     Eigenvalues ---    0.03623   0.03624   0.05399   0.05400   0.05401
     Eigenvalues ---    0.19712   0.34751   0.34754   0.34758
 Angle between quadratic step and forces=  51.21 degrees.
 Linear search not attempted -- first point.
 B after Tr=    -0.000026    0.000026   -0.000015
         Rot=    1.000000    0.000000    0.000000   -0.000000 Ang=   0.00 deg.
 Variable       Old X    -DE/DX   Delta X   Delta X   Delta X     New X
                                 (Linear)    (Quad)   (Total)
    X1        0.70792   0.00000   0.00000   0.00008   0.00006   0.70797
    Y1        2.54023  -0.00001   0.00000  -0.00006  -0.00004   2.54020
    Z1        0.92889  -0.00000   0.00000   0.00004   0.00002   0.92891
    X2       -0.00266   0.00000   0.00000   0.00007   0.00005  -0.00262
    Y2       -0.00253  -0.00000   0.00000  -0.00007  -0.00005  -0.00257
    Z2       -2.79580   0.00001   0.00000   0.00004   0.00003  -2.79577
    X3        1.84656  -0.00000   0.00000  -0.00005  -0.00007   1.84649
    Y3       -1.88108   0.00000   0.00000   0.00004   0.00007  -1.88101
    Z3        0.93183   0.00000   0.00000  -0.00002  -0.00003   0.93180
    X4       -2.55177   0.00001   0.00000   0.00007   0.00004  -2.55173
    Y4       -0.65667  -0.00000   0.00000  -0.00009  -0.00006  -0.65673
    Z4        0.93488  -0.00000   0.00000   0.00004   0.00002   0.93490
    X5       -0.00004  -0.00002   0.00000  -0.00005  -0.00007  -0.00012
    Y5        0.00005   0.00002   0.00000   0.00005   0.00007   0.00012
    Z5        0.00008  -0.00001   0.00000  -0.00003  -0.00004   0.00004
         Item               Value     Threshold  Converged?
 Maximum Force            0.000016     0.000450     YES
 RMS     Force            0.000008     0.000300     YES
 Maximum Displacement     0.000075     0.001800     YES
 RMS     Displacement     0.000051     0.001200     YES
 Predicted change in Energy=-2.286642D-09
 Optimization completed.
    -- Stationary point found.
 GradGradGradGradGradGradGradGradGradGradGradGradGradGradGradGradGradGrad

 Leave Link  103 at Sun Apr 14 23:37:36 2024, MaxMem=   104857600 cpu:               0.0 elap:               0.0
 (Enter /opt/g16/l9999.exe)
 Unable to Open any file for archive entry.
 1\1\GINC-DESKTOP-1D9QDE1\Freq\External='python3 -u ../pes/sih4_pes.py'
 \ZDO\H4Si1\JH-LI\14-Apr-2024\0\\#p external="python3 -u ../pes/sih4_pe
 s.py" freq geom=allcheck\\Title Card Required\\0,1\H,0.3746130909,1.34
 4233504,0.4915458206\H,-0.0014088418,-0.0013373335,-1.4794732977\H,0.9
 771591387,-0.9954247381,0.4931028689\H,-1.3503409767,-0.3474962506,0.4
 947165394\Si,-0.0000224112,0.0000248181,0.0000440789\\Version=ES64L-G1
 6RevC.01\HF=-751.1475237\RMSD=0.000e+00\RMSF=8.339e-06\ZeroPoint=0.031
 5166\Thermal=0.0345794\ETot=-751.1129443\HTot=-751.1120001\GTot=-751.1
 375584\Dipole=0.,0.,0.\PG=C01 [X(H4Si1)]\NImag=0\\0.03123464,0.0394220
 8,0.16167515,0.01442106,0.05170804,0.03915624,0.00210631,-0.00010765,-
 0.00347884,0.02026693,-0.00011574,0.00175353,-0.01248159,0.00000620,0.
 02026665,-0.00023204,-0.00081946,-0.00312530,0.00015334,0.00016496,0.1
 9158686,0.00431000,-0.00176972,0.00117318,0.00193253,0.00020898,-0.000
 59770,0.09502364,0.00812233,-0.00719990,0.00391251,0.00019308,0.001942
 83,0.00059954,-0.07615114,0.09784542,0.00290751,-0.00284622,0.00362586
 ,-0.00907393,0.00924224,-0.00314091,0.03771869,-0.03842403,0.03930059,
 -0.00157734,-0.00162679,0.00102314,0.00177433,-0.00009315,0.00081483,-
 0.00707416,-0.00154524,0.00281204,0.16296275,-0.01151017,-0.00131629,0
 .00396923,-0.00008535,0.00211685,0.00020659,0.00833091,0.00417467,-0.0
 0297893,0.03673485,0.02970275,-0.00395746,-0.00093362,0.00363036,0.012
 53787,0.00322599,-0.00315670,-0.00392984,-0.00109498,0.00363544,-0.052
 27759,-0.01346445,0.03940085,-0.03607015,-0.03591797,-0.01313869,-0.02
 607735,-0.00000662,-0.00013816,-0.09418903,0.06938038,-0.03436409,-0.1
 5608134,-0.03346951,0.04762685,0.31240446,-0.03591779,-0.15490823,-0.0
 4710804,-0.00000663,-0.02607709,-0.00015191,0.06938041,-0.09676003,0.0
 3500670,-0.03346973,-0.03467456,0.01226719,0.00001398,0.31240650,-0.01
 313837,-0.04710849,-0.04328354,-0.00013833,-0.00015171,-0.18216002,-0.
 03436399,0.03500660,-0.04341828,0.04762731,0.01226688,-0.04350633,0.00
 001322,-0.00001306,0.31235432\\-0.00000128,0.00000924,0.00000140,-0.00
 000473,0.00000463,-0.00001252,0.00000114,-0.00000083,-0.00000216,-0.00
 000988,0.00000130,0.00000174,0.00001649,-0.00001618,0.00001053\\\@
 The archive entry for this job was punched.


 MARY HAD A LITTLE LAMB
      HIS FEET WERE BLACK AS SOOT,
           AND EVERYWHERE THAT MARY WENT
                HIS SOOTY FOOT HE PUT.

                    -- NONAME
 Job cpu time:       0 days  0 hours  0 minutes  0.4 seconds.
 Elapsed time:       0 days  0 hours  0 minutes  1.2 seconds.
 File lengths (MBytes):  RWF=      6 Int=      0 D2E=      0 Chk=      1 Scr=      1
 Normal termination of Gaussian 16 at Sun Apr 14 23:37:36 2024.
