 Entering Gaussian System, Link 0=g16
 Initial command:
 /opt/g16/l1.exe "/home/jh-li/scratch/g16/Gau-266009.inp" -scrdir="/home/jh-li/scratch/g16/"
 Entering Link 1 = /opt/g16/l1.exe PID=    266012.
  
 Copyright (c) 1988-2019, Gaussian, Inc.  All Rights Reserved.
  
 This is part of the Gaussian(R) 16 program.  It is based on
 the Gaussian(R) 09 system (copyright 2009, Gaussian, Inc.),
 the Gaussian(R) 03 system (copyright 2003, Gaussian, Inc.),
 the Gaussian(R) 98 system (copyright 1998, Gaussian, Inc.),
 the Gaussian(R) 94 system (copyright 1995, Gaussian, Inc.),
 the Gaussian 92(TM) system (copyright 1992, Gaussian, Inc.),
 the Gaussian 90(TM) system (copyright 1990, Gaussian, Inc.),
 the Gaussian 88(TM) system (copyright 1988, Gaussian, Inc.),
 the Gaussian 86(TM) system (copyright 1986, Carnegie Mellon
 University), and the Gaussian 82(TM) system (copyright 1983,
 Carnegie Mellon University). Gaussian is a federally registered
 trademark of Gaussian, Inc.
  
 This software contains proprietary and confidential information,
 including trade secrets, belonging to Gaussian, Inc.
  
 This software is provided under written license and may be
 used, copied, transmitted, or stored only in accord with that
 written license.
  
 The following legend is applicable only to US Government
 contracts under FAR:
  
                    RESTRICTED RIGHTS LEGEND
  
 Use, reproduction and disclosure by the US Government is
 subject to restrictions as set forth in subparagraphs (a)
 and (c) of the Commercial Computer Software - Restricted
 Rights clause in FAR 52.227-19.
  
 Gaussian, Inc.
 340 Quinnipiac St., Bldg. 40, Wallingford CT 06492
  
  
 ---------------------------------------------------------------
 Warning -- This program may not be used in any manner that
 competes with the business of Gaussian, Inc. or will provide
 assistance to any competitor of Gaussian, Inc.  The licensee
 of this program is prohibited from giving any competitor of
 Gaussian, Inc. access to this program.  By using this program,
 the user acknowledges that Gaussian, Inc. is engaged in the
 business of creating and licensing software in the field of
 computational chemistry and represents and warrants to the
 licensee that it is not a competitor of Gaussian, Inc. and that
 it will not use this program in any manner prohibited above.
 ---------------------------------------------------------------
  

 Cite this work as:
 Gaussian 16, Revision C.01,
 M. J. Frisch, G. W. Trucks, H. B. Schlegel, G. E. Scuseria, 
 M. A. Robb, J. R. Cheeseman, G. Scalmani, V. Barone, 
 G. A. Petersson, H. Nakatsuji, X. Li, M. Caricato, A. V. Marenich, 
 J. Bloino, B. G. Janesko, R. Gomperts, B. Mennucci, H. P. Hratchian, 
 J. V. Ortiz, A. F. Izmaylov, J. L. Sonnenberg, D. Williams-Young, 
 F. Ding, F. Lipparini, F. Egidi, J. Goings, B. Peng, A. Petrone, 
 T. Henderson, D. Ranasinghe, V. G. Zakrzewski, J. Gao, N. Rega, 
 G. Zheng, W. Liang, M. Hada, M. Ehara, K. Toyota, R. Fukuda, 
 J. Hasegawa, M. Ishida, T. Nakajima, Y. Honda, O. Kitao, H. Nakai, 
 T. Vreven, K. Throssell, J. A. Montgomery, Jr., J. E. Peralta, 
 F. Ogliaro, M. J. Bearpark, J. J. Heyd, E. N. Brothers, K. N. Kudin, 
 V. N. Staroverov, T. A. Keith, R. Kobayashi, J. Normand, 
 K. Raghavachari, A. P. Rendell, J. C. Burant, S. S. Iyengar, 
 J. Tomasi, M. Cossi, J. M. Millam, M. Klene, C. Adamo, R. Cammi, 
 J. W. Ochterski, R. L. Martin, K. Morokuma, O. Farkas, 
 J. B. Foresman, and D. J. Fox, Gaussian, Inc., Wallingford CT, 2019.
 
 ******************************************
 Gaussian 16:  ES64L-G16RevC.01  3-Jul-2019
                14-Apr-2024 
 ******************************************
 %nproc=1
 Will use up to    1 processors via shared memory.
 %oldchk=ts1-opt-freq.chk
 Copying data from "ts1-opt-freq.chk" to current chk file "/home/jh-li/scratch/g16/Gau-266012.chk"
 IOpt=  2 FromEx=T IUOpen= 4 IOptOp= 5 NList=   0 IFRang= 0 IUIn= 4 IUOut= 2.
 ----------------------------------------------------------------------
 #p external="python3 -u ../pes/h4sicl_pes.py" irc=(calcall,stepsize=3,
 maxpoint=100) geom=allcheck
 ----------------------------------------------------------------------
 1/6=10,10=4,18=10,26=1,29=7,38=1,39=3,42=100,44=3,71=1,172=1/1,23;
 2/12=2,29=1,40=1/2;
 3/11=9,14=-4,25=1,30=1,41=9900000,43=2,71=2,140=1/1;
 4/20=17,22=1002,24=3,113=1,114=1/2;
 6/7=2,8=2,9=2,10=2,18=1/1;
 7/25=1,44=-1/16;
 1/6=10,10=4,18=10,26=1,39=3,42=100,44=3,71=1/23(2);
 2/29=1/2;
 99/5=20/99;
 2/29=1/2;
 3/11=9,14=-2,25=1,30=1,41=9900000,43=2,71=2,140=1/1;
 4/16=2,20=17,22=1002,24=3,113=1,114=1/2;
 7/25=1,44=-1/16;
 1/6=10,10=4,18=10,26=1,39=3,42=100,44=3,71=1/23(-4);
 2/29=1/2;
 6/7=2,8=2,9=2,10=2,18=1/1;
 99/5=20/99;
 Leave Link    1 at Sun Apr 14 22:18:44 2024, MaxMem=   104857600 cpu:               0.0 elap:               0.0
 (Enter /opt/g16/l101.exe)
 Structure from the checkpoint file:  "/home/jh-li/scratch/g16/Gau-266012.chk"
 -------------------
 Title Card Required
 -------------------
 Charge =  0 Multiplicity = 2
 Redundant internal coordinates found in file.  (old form).
 H,0,-0.002508238,-0.0019529853,1.4700883835
 H,0,1.3237866762,-0.0016586223,-0.6391744502
 H,0,-1.3057282161,-0.4972176131,-0.8213992657
 H,0,-0.5932081628,1.3500910409,-0.3727000484
 Si,0,-0.0029041792,0.0040262101,-0.0017778026
 Cl,0,-0.3770058401,-2.2432898503,-0.2371962965
 Recover connectivity data from disk.
 ITRead=  0  0  0  0  0  0
 MicOpt= -1 -1 -1 -1 -1 -1
 NAtoms=      6 NQM=        6 NQMF=       0 NMMI=      0 NMMIF=      0
                NMic=       0 NMicF=      0.
                    Isotopes and Nuclear Properties:
 (Nuclear quadrupole moments (NQMom) in fm**2, nuclear magnetic moments (NMagM)
  in nuclear magnetons)

  Atom         1           2           3           4           5           6
 IAtWgt=           1           1           1           1          28          35
 AtmWgt=   1.0078250   1.0078250   1.0078250   1.0078250  27.9769284  34.9688527
 NucSpn=           1           1           1           1           0           3
 AtZEff=   1.0000000   1.0000000   1.0000000   1.0000000  12.2500000  14.2400000
 NQMom=    0.0000000   0.0000000   0.0000000   0.0000000   0.0000000  -8.1650000
 NMagM=    2.7928460   2.7928460   2.7928460   2.7928460   0.0000000   0.8218740
 AtZNuc=   1.0000000   1.0000000   1.0000000   1.0000000  14.0000000  17.0000000
 Leave Link  101 at Sun Apr 14 22:18:44 2024, MaxMem=   104857600 cpu:               0.1 elap:               0.2
 (Enter /opt/g16/l123.exe)
 IRC-IRC-IRC-IRC-IRC-IRC-IRC-IRC-IRC-IRC-IRC-IRC-IRC-IRC-IRC-IRC-IRC-IRC
 ------------------------------------------------------------------------
 INPUT DATA FOR L123
 ------------------------------------------------------------------------
 GENERAL PARAMETERS:
 Follow reaction path in both directions.
 Maximum points per path      = 100
 Step size                    =   0.030 bohr
 Integration scheme           = HPC                                 
    Redo corrector integration= Yes                                 
    DWI Weight Power          =  2
    DWI will use Hessian update vectors when possible.
    Max correction cycles     =  10
 Initial Hessian              = CalcFC
 Hessian evaluation           = Analytic at all predictor steps
                              = Update at all corrector steps
 Hessian updating method      = Bofill                              
 ------------------------------------------------------------------------
 IRC-IRC-IRC-IRC-IRC-IRC-IRC-IRC-IRC-IRC-IRC-IRC-IRC-IRC-IRC-IRC-IRC-IRC
 Leave Link  123 at Sun Apr 14 22:18:44 2024, MaxMem=   104857600 cpu:               0.0 elap:               0.0
 (Enter /opt/g16/l202.exe)
                          Input orientation:                          
 ---------------------------------------------------------------------
 Center     Atomic      Atomic             Coordinates (Angstroms)
 Number     Number       Type             X           Y           Z
 ---------------------------------------------------------------------
      1          1           0       -0.002508   -0.001953    1.470088
      2          1           0        1.323787   -0.001659   -0.639174
      3          1           0       -1.305728   -0.497218   -0.821399
      4          1           0       -0.593208    1.350091   -0.372700
      5         14           0       -0.002904    0.004026   -0.001778
      6         17           0       -0.377006   -2.243290   -0.237196
 ---------------------------------------------------------------------
                    Distance matrix (angstroms):
                    1          2          3          4          5
     1  H    0.000000
     2  H    2.491595   0.000000
     3  H    2.682272   2.682002   0.000000
     4  H    2.360682   2.360742   2.030164   0.000000
     5  Si   1.471878   1.471875   1.618757   1.515893   0.000000
     6  Cl   2.842298   2.842392   2.062180   3.602428   2.290372
                    6
     6  Cl   0.000000
 Symmetry turned off by external request.
 Stoichiometry    ClH4Si(2)
 Framework group  C1[X(ClH4Si)]
 Deg. of freedom    12
 Full point group                 C1      NOp   1
 Rotational constants (GHZ):          70.0077621           5.3456332           5.2917713
 Leave Link  202 at Sun Apr 14 22:18:44 2024, MaxMem=   104857600 cpu:               0.0 elap:               0.0
 (Enter /opt/g16/l301.exe)
 Standard basis: STO-3G (5D, 7F)
 Ernie: Thresh=  0.10000D-02 Tol=  0.10000D-05 Strict=F.
    22 basis functions,    66 primitive gaussians,    22 cartesian basis functions
    18 alpha electrons       17 beta electrons
       nuclear repulsion energy        89.0246299716 Hartrees.
 IExCor=    0 DFT=F Ex=HF Corr=None ExCW=0 ScaHFX=  1.000000
 ScaDFX=  1.000000  1.000000  1.000000  1.000000 ScalE2=  1.000000  1.000000
 IRadAn=      5 IRanWt=     -1 IRanGd=            0 ICorTp=0 IEmpDi=  4
 NAtoms=    6 NActive=    6 NUniq=    6 SFac= 1.00D+00 NAtFMM=   60 NAOKFM=F Big=F
 Integral buffers will be    131072 words long.
 Raffenetti 2 integral format.
 Two-electron integral symmetry is turned off.
 Leave Link  301 at Sun Apr 14 22:18:44 2024, MaxMem=   104857600 cpu:               0.0 elap:               0.0
 (Enter /opt/g16/l402.exe)
 External calculation of energy, first and second derivatives.
 Running external command "python3 -u ../pes/h4sicl_pes.py R"
         input file       "/home/jh-li/scratch/g16/Gau-266012.EIn"
         output file      "/home/jh-li/scratch/g16/Gau-266012.EOu"
         message file     "/home/jh-li/scratch/g16/Gau-266012.EMs"
         fchk file        "/home/jh-li/scratch/g16/Gau-266012.EFC"
         mat. el file     "/home/jh-li/scratch/g16/Gau-266012.EUF"
 initialization done
 Recovered energy= -751.145604771     dipole=      0.000000000000      0.000000000000      0.000000000000
 NRF= 0 NRA=   0 NVA=   0 HaveQM=F NVQ=       0
 Convergence limit is  0.750E-04 MaxStp= 10000 StMxLn= 3.00D-04 StpMin= 1.00D-06.
 Convergence criteria             0.00011250 0.00007500 0.00045000 0.00030000
  Step  NS  ND Rises OKQ   Scale  Max. Force  RMS Force Max. Disp.  RMS Disp.     Energy   Flag
     1   0   0   F    T  1.00D+00 0.00000000 0.00000000 0.00000000 0.00000000 -751.1456048 ====
 Running external command "python3 -u ../pes/h4sicl_pes.py R"
         input file       "/home/jh-li/scratch/g16/Gau-266012.EIn"
         output file      "/home/jh-li/scratch/g16/Gau-266012.EOu"
         message file     "/home/jh-li/scratch/g16/Gau-266012.EMs"
         fchk file        "/home/jh-li/scratch/g16/Gau-266012.EFC"
         mat. el file     "/home/jh-li/scratch/g16/Gau-266012.EUF"
 initialization done
 Recovered energy= -751.145604771     dipole=      0.000000000000      0.000000000000      0.000000000000
 Energy=    -751.145605     NIter=   0.
 Dipole moment=       0.000000       0.000000       0.000000
 Leave Link  402 at Sun Apr 14 22:18:45 2024, MaxMem=   104857600 cpu:               0.1 elap:               0.8
 (Enter /opt/g16/l601.exe)
 Leave Link  601 at Sun Apr 14 22:18:45 2024, MaxMem=   104857600 cpu:               0.0 elap:               0.0
 (Enter /opt/g16/l716.exe)
 Dipole        = 0.00000000D+00 0.00000000D+00 0.00000000D+00
 -------------------------------------------------------------------
 Center     Atomic                   Forces (Hartrees/Bohr)
 Number     Number              X              Y              Z
 -------------------------------------------------------------------
      1        1           0.000005090   -0.000002069    0.000014390
      2        1           0.000010299   -0.000001558    0.000011264
      3        1          -0.000009291   -0.000000035   -0.000000971
      4        1           0.000004904    0.000003176    0.000003277
      5       14          -0.000011786    0.000001789   -0.000029174
      6       17          -0.000001221   -0.000013824   -0.000000987
 -------------------------------------------------------------------
 Cartesian Forces:  Max     0.000029174 RMS     0.000009977
 Force constants in Cartesian coordinates: 
                1             2             3             4             5 
      1  0.181607D-01
      2 -0.903519D-03  0.236844D-01
      3 -0.204104D-03 -0.225006D-02  0.191736D+00
      4  0.337591D-02  0.310063D-03 -0.370460D-04  0.158959D+00
      5 -0.242516D-03  0.874738D-03  0.460542D-03 -0.238747D-02  0.236818D-01
      6  0.103115D-01 -0.416525D-03 -0.156435D-02 -0.678931D-01  0.146125D-03
      7  0.201506D-02  0.793918D-03 -0.102400D-03 -0.679543D-03 -0.623540D-03
      8  0.139669D-02 -0.497026D-02  0.414177D-04  0.642046D-03 -0.497026D-02
      9 -0.263871D-02 -0.107156D-02  0.205276D-04  0.119219D-02  0.117747D-02
     10  0.213086D-02  0.325886D-02 -0.104115D-02 -0.532141D-02  0.126332D-01
     11  0.112912D-02 -0.982831D-03  0.169424D-02  0.201214D-02 -0.978159D-03
     12 -0.637905D-02  0.124515D-01 -0.347612D-02  0.254035D-02 -0.245880D-02
     13 -0.273477D-01  0.163931D-04  0.225113D-02 -0.154633D+00  0.161322D-02
     14  0.743388D-03 -0.905875D-02  0.284862D-02  0.285730D-02 -0.906430D-02
     15  0.117227D-02  0.181685D-02 -0.185732D+00  0.634462D-01 -0.753742D-03
     16  0.166546D-02 -0.347426D-02 -0.868092D-03 -0.170879D-02 -0.109896D-01
     17 -0.212463D-02 -0.954902D-02 -0.279759D-02 -0.343727D-02 -0.954546D-02
     18 -0.226159D-02 -0.105279D-01 -0.986838D-03  0.753487D-03  0.142833D-02
                6             7             8             9            10 
      6  0.508741D-01
      7 -0.135091D-02  0.476379D-01
      8  0.123723D-02  0.158008D-01  0.160136D-01
      9  0.271091D-02  0.275536D-01  0.993505D-02  0.211567D-01
     10 -0.279288D-02 -0.123456D-02  0.172259D-02 -0.310678D-02  0.392229D-01
     11  0.280312D-03 -0.115944D-01 -0.157814D-01 -0.730053D-02 -0.439298D-01
     12  0.397411D-02 -0.310739D-02  0.107829D-02  0.174639D-02  0.127494D-01
     13  0.623686D-01 -0.474825D-01 -0.212425D-01 -0.210600D-01 -0.408822D-01
     14 -0.545509D-03 -0.321444D-01  0.331507D-01 -0.202118D-01  0.245392D-01
     15 -0.583827D-01 -0.210566D-01 -0.133457D-01 -0.272412D-01 -0.916762D-02
     16 -0.639600D-03 -0.260211D-03  0.167523D-02 -0.194183D-02  0.608058D-02
     17 -0.701722D-03  0.277794D-01 -0.234494D-01  0.174788D-01  0.178302D-02
     18  0.238899D-02 -0.193915D-02  0.105238D-02  0.160423D-02  0.335666D-02
               11            12            13            14            15 
     11  0.121038D+00
     12 -0.276004D-01  0.269519D-01
     13  0.526152D-01 -0.916375D-02  0.287183D+00
     14 -0.104983D+00  0.154135D-01 -0.936872D-02  0.122874D+00
     15  0.330727D-01 -0.320500D-01 -0.323372D-01 -0.591980D-02  0.318255D+00
     16 -0.234077D-03  0.335532D-02 -0.168185D-01  0.133773D-01 -0.204723D-02
     17  0.169292D-02  0.112034D-02 -0.236449D-01 -0.328899D-01 -0.148775D-01
     18 -0.146313D-03  0.285531D-02 -0.205429D-02  0.841521D-02 -0.148462D-01
               16            17            18 
     16  0.110367D-01
     17 -0.357367D-03  0.737172D-01
     18  0.213975D-02 -0.223520D-03  0.898466D-02
 Leave Link  716 at Sun Apr 14 22:18:45 2024, MaxMem=   104857600 cpu:               0.0 elap:               0.0
 (Enter /opt/g16/l123.exe)
 IRC-IRC-IRC-IRC-IRC-IRC-IRC-IRC-IRC-IRC-IRC-IRC-IRC-IRC-IRC-IRC-IRC-IRC
          ******** Start new reaction path calculation ********
 Current Structure is TS -> form Hessian eigenvectors.
                            Diagonalizing Hessian.
 Supplied step size of   0.0300 bohr.
    Integration on MW PES will use step size of   0.0476 sqrt(amu)*bohr.
 Point Number:   0          Path Number:   1
 Calculating another point on the path.
 Point Number  1 in FORWARD path direction.
 Using LQA Reaction Path Following.
 IRC-IRC-IRC-IRC-IRC-IRC-IRC-IRC-IRC-IRC-IRC-IRC-IRC-IRC-IRC-IRC-IRC-IRC
 Leave Link  123 at Sun Apr 14 22:18:45 2024, MaxMem=   104857600 cpu:               0.0 elap:               0.0
 (Enter /opt/g16/l202.exe)
                          Input orientation:                          
 ---------------------------------------------------------------------
 Center     Atomic      Atomic             Coordinates (Angstroms)
 Number     Number       Type             X           Y           Z
 ---------------------------------------------------------------------
      1          1           0        0.203845    1.157876    1.600090
      2          1           0        1.530317    1.158170   -0.509455
      3          1           0       -1.104740    0.671744   -0.694971
      4          1           0       -0.389742    2.503702   -0.244710
      5         14           0        0.203641    1.157800    0.128147
      6         17           0       -0.169831   -1.084570   -0.106875
 ---------------------------------------------------------------------
                    Distance matrix (angstroms):
                    1          2          3          4          5
     1  H    0.000000
     2  H    2.491928   0.000000
     3  H    2.686265   2.685991   0.000000
     4  H    2.359424   2.359486   2.017431   0.000000
     5  Si   1.471943   1.471939   1.620381   1.517425   0.000000
     6  Cl   2.842873   2.842966   2.074740   3.597646   2.285375
                    6
     6  Cl   0.000000
 Symmetry turned off by external request.
 Stoichiometry    ClH4Si(2)
 Framework group  C1[X(ClH4Si)]
 Deg. of freedom    12
 Full point group                 C1      NOp   1
 Rotational constants (GHZ):          69.7226858           5.3652669           5.3094570
 Leave Link  202 at Sun Apr 14 22:18:45 2024, MaxMem=   104857600 cpu:               0.0 elap:               0.0
 (Enter /opt/g16/l301.exe)
 Standard basis: STO-3G (5D, 7F)
 Ernie: Thresh=  0.10000D-02 Tol=  0.10000D-05 Strict=F.
    22 basis functions,    66 primitive gaussians,    22 cartesian basis functions
    18 alpha electrons       17 beta electrons
       nuclear repulsion energy        89.1118045757 Hartrees.
 IExCor=    0 DFT=F Ex=HF Corr=None ExCW=0 ScaHFX=  1.000000
 ScaDFX=  1.000000  1.000000  1.000000  1.000000 ScalE2=  1.000000  1.000000
 IRadAn=      5 IRanWt=     -1 IRanGd=            0 ICorTp=0 IEmpDi=  4
 NAtoms=    6 NActive=    6 NUniq=    6 SFac= 1.00D+00 NAtFMM=   60 NAOKFM=F Big=F
 Integral buffers will be    131072 words long.
 Raffenetti 2 integral format.
 Two-electron integral symmetry is turned off.
 Leave Link  301 at Sun Apr 14 22:18:45 2024, MaxMem=   104857600 cpu:               0.0 elap:               0.0
 (Enter /opt/g16/l402.exe)
 External calculation of energy, first and second derivatives.
 Running external command "python3 -u ../pes/h4sicl_pes.py R"
         input file       "/home/jh-li/scratch/g16/Gau-266012.EIn"
         output file      "/home/jh-li/scratch/g16/Gau-266012.EOu"
         message file     "/home/jh-li/scratch/g16/Gau-266012.EMs"
         fchk file        "/home/jh-li/scratch/g16/Gau-266012.EFC"
         mat. el file     "/home/jh-li/scratch/g16/Gau-266012.EUF"
 initialization done
 Recovered energy= -751.145610237     dipole=      0.000000000000      0.000000000000      0.000000000000
 NRF= 0 NRA=   0 NVA=   0 HaveQM=F NVQ=       0
 Convergence limit is  0.750E-04 MaxStp= 10000 StMxLn= 3.00D-04 StpMin= 1.00D-06.
 Convergence criteria             0.00011250 0.00007500 0.00045000 0.00030000
  Step  NS  ND Rises OKQ   Scale  Max. Force  RMS Force Max. Disp.  RMS Disp.     Energy   Flag
     1   0   0   F    T  1.00D+00 0.00000000 0.00000000 0.00000000 0.00000000 -751.1456102 ====
 Running external command "python3 -u ../pes/h4sicl_pes.py R"
         input file       "/home/jh-li/scratch/g16/Gau-266012.EIn"
         output file      "/home/jh-li/scratch/g16/Gau-266012.EOu"
         message file     "/home/jh-li/scratch/g16/Gau-266012.EMs"
         fchk file        "/home/jh-li/scratch/g16/Gau-266012.EFC"
         mat. el file     "/home/jh-li/scratch/g16/Gau-266012.EUF"
 initialization done
 Recovered energy= -751.145610237     dipole=      0.000000000000      0.000000000000      0.000000000000
 Energy=    -751.145610     NIter=   0.
 Dipole moment=       0.000000       0.000000       0.000000
 Leave Link  402 at Sun Apr 14 22:18:46 2024, MaxMem=   104857600 cpu:               0.0 elap:               0.8
 (Enter /opt/g16/l716.exe)
 Dipole        = 0.00000000D+00 0.00000000D+00 0.00000000D+00
 -------------------------------------------------------------------
 Center     Atomic                   Forces (Hartrees/Bohr)
 Number     Number              X              Y              Z
 -------------------------------------------------------------------
      1        1           0.000000923    0.000029085    0.000008793
      2        1           0.000003424    0.000029595    0.000009915
      3        1          -0.000054282    0.000130959   -0.000029313
      4        1          -0.000028841   -0.000022957   -0.000017929
      5       14          -0.000064951   -0.000779232   -0.000062704
      6       17           0.000141743    0.000600749    0.000089009
 -------------------------------------------------------------------
 Cartesian Forces:  Max     0.000779232 RMS     0.000239074
 Force constants in Cartesian coordinates: 
                1             2             3             4             5 
      1  0.181705D-01
      2 -0.888391D-03  0.236008D-01
      3 -0.218128D-03 -0.152815D-02  0.191697D+00
      4  0.338781D-02  0.331016D-03 -0.602867D-04  0.158919D+00
      5 -0.197501D-03  0.841004D-03  0.462140D-03 -0.173038D-02  0.235985D-01
      6  0.103100D-01 -0.376696D-03 -0.154061D-02 -0.678830D-01 -0.152896D-03
      7  0.207716D-02  0.693769D-03 -0.922131D-04 -0.599203D-03 -0.669907D-03
      8  0.146530D-02 -0.515923D-02  0.124820D-03  0.746981D-03 -0.515914D-02
      9 -0.256249D-02 -0.107499D-02  0.635860D-04  0.119365D-02  0.108864D-02
     10  0.208610D-02  0.331251D-02 -0.103214D-02 -0.538837D-02  0.126258D-01
     11  0.114247D-02 -0.106980D-02  0.172489D-02  0.204546D-02 -0.106506D-02
     12 -0.640562D-02  0.124175D-01 -0.353983D-02  0.256003D-02 -0.239574D-02
     13 -0.274399D-01  0.937339D-04  0.221280D-02 -0.154677D+00  0.108408D-02
     14  0.671810D-03 -0.869348D-02  0.202507D-02  0.208421D-02 -0.869944D-02
     15  0.113926D-02  0.119269D-02 -0.185731D+00  0.633848D-01 -0.413619D-03
     16  0.171852D-02 -0.354120D-02 -0.811596D-03 -0.164933D-02 -0.111089D-01
     17 -0.219513D-02 -0.952134D-02 -0.281141D-02 -0.348030D-02 -0.951786D-02
     18 -0.226274D-02 -0.106280D-01 -0.952480D-03  0.806904D-03  0.141141D-02
                6             7             8             9            10 
      6  0.508859D-01
      7 -0.128362D-02  0.470163D-01
      8  0.126284D-02  0.150855D-01  0.145532D-01
      9  0.273566D-02  0.272371D-01  0.948510D-02  0.208388D-01
     10 -0.280872D-02 -0.113537D-02  0.203159D-02 -0.304968D-02  0.391781D-01
     11  0.278981D-03 -0.120359D-01 -0.160784D-01 -0.757841D-02 -0.435383D-01
     12  0.393267D-02 -0.305048D-02  0.127250D-02  0.179066D-02  0.128304D-01
     13  0.623127D-01 -0.471200D-01 -0.207090D-01 -0.208592D-01 -0.409765D-01
     14 -0.253126D-03 -0.305881D-01  0.351143D-01 -0.192326D-01  0.239073D-01
     15 -0.584295D-01 -0.208556D-01 -0.130101D-01 -0.270710D-01 -0.940477D-02
     16 -0.643889D-03 -0.242461D-03  0.137546D-02 -0.196073D-02  0.623258D-02
     17 -0.759261D-03  0.275264D-01 -0.232789D-01  0.173197D-01  0.166804D-02
     18  0.241690D-02 -0.195796D-02  0.863845D-03  0.163999D-02  0.346268D-02
               11            12            13            14            15 
     11  0.119586D+00
     12 -0.273543D-01  0.268293D-01
     13  0.527069D-01 -0.940056D-02  0.287518D+00
     14 -0.103183D+00  0.150164D-01 -0.968734D-02  0.119770D+00
     15  0.331306D-01 -0.319166D-01 -0.320912D-01 -0.612063D-02  0.318353D+00
     16 -0.322075D-03  0.346126D-02 -0.172863D-01  0.136154D-01 -0.216330D-02
     17  0.181487D-02  0.104803D-02 -0.234994D-01 -0.342774D-01 -0.147860D-01
     18 -0.201631D-03  0.290545D-02 -0.217039D-02  0.856495D-02 -0.152026D-01
               16            17            18 
     16  0.112228D-01
     17 -0.219009D-04  0.747571D-01
     18  0.211675D-02 -0.125444D-04  0.919301D-02
 Leave Link  716 at Sun Apr 14 22:18:46 2024, MaxMem=   104857600 cpu:               0.0 elap:               0.0
 (Enter /opt/g16/l123.exe)
 IRC-IRC-IRC-IRC-IRC-IRC-IRC-IRC-IRC-IRC-IRC-IRC-IRC-IRC-IRC-IRC-IRC-IRC
 Pt  1 Step number   1 out of a maximum of  10
 Using modified Bulirsch-Stoer corrector integration.
   Using distance weighted interpolants to fit PES.
 PreDWI: IReCr0= 2 IReCr1= 1 IReCr2= 1 IReCr3= 1
 Modified Bulirsch-Stoer Extrapolation Cycles:
    EPS =    0.000010000000000
    Cycle     1 NS=    48
      PEZero:  N= 2 I= 1 D=  1.24D-04 Err=  2.34D-04
    Cycle     2 NS=    64 Truncation Error =  0.000233724
      PEZero:  N= 3 I= 2 D=  1.24D-04 Err=  1.56D-04
      PEZero:  N= 3 I= 1 D=  2.48D-04 Err=  4.52D-07
    Cycle     3 NS=    96 Truncation Error =  0.000000452
 BS completed in    3 cycles and     208 integration steps.
 Maximum DWI energy   std dev =  0.000000050 at pt     1
 Maximum DWI gradient std dev =  0.027585537 at pt     1
 SUMMARY OF CORRECTOR INTEGRATION:
   Predictor End Point Energy =  -751.145610
   Old End Point Energy       =  -751.145610
   Corrected End Point Energy =  -751.145610
   Predictor End-Start Dist.  =     0.047637
   Old End-Start Dist.        =     0.047637
   New End-Start Dist.        =     0.047603
   New End-Old End Dist.      =     0.001155
 CORRECTOR INTEGRATION CONVERGENCE:
   Recorrection delta-x convergence threshold:    0.010000
   Delta-x Convergence Met
 Point Number:   1          Path Number:   1
                    CURRENT STRUCTURE
                Cartesian Coordinates (Ang):                
 ---------------------------------------------------------------------
 Center     Atomic                     Coordinates (Angstroms)
 Number     Number                        X           Y           Z
 ---------------------------------------------------------------------
      1          1                    0.203797    1.157891    1.600106
      2          1                    1.530472    1.158124   -0.509132
      3          1                   -1.104852    0.672035   -0.694822
      4          1                   -0.389534    2.503838   -0.244740
      5         14                    0.203636    1.157806    0.128136
      6         17                   -0.169836   -1.084606   -0.106883
 ---------------------------------------------------------------------
   CHANGE IN THE REACTION COORDINATE =    0.04760
   NET REACTION COORDINATE UP TO THIS POINT =    0.04760
  # OF POINTS ALONG THE PATH =   1
  # OF STEPS =   1

 Calculating another point on the path.
 Point Number  2 in FORWARD path direction.
 Using LQA Reaction Path Following.
   LQA: T_Est iteration completed in    3 iterations.
 IRC-IRC-IRC-IRC-IRC-IRC-IRC-IRC-IRC-IRC-IRC-IRC-IRC-IRC-IRC-IRC-IRC-IRC
 Leave Link  123 at Sun Apr 14 22:18:46 2024, MaxMem=   104857600 cpu:               0.0 elap:               0.0
 (Enter /opt/g16/l202.exe)
                          Input orientation:                          
 ---------------------------------------------------------------------
 Center     Atomic      Atomic             Coordinates (Angstroms)
 Number     Number       Type             X           Y           Z
 ---------------------------------------------------------------------
      1          1           0        0.203216    1.161152    1.600035
      2          1           0        1.530283    1.161253   -0.509355
      3          1           0       -1.110544    0.684959   -0.698329
      4          1           0       -0.392659    2.500880   -0.246916
      5         14           0        0.203447    1.154847    0.128020
      6         17           0       -0.169413   -1.082735   -0.106623
 ---------------------------------------------------------------------
                    Distance matrix (angstroms):
                    1          2          3          4          5
     1  H    0.000000
     2  H    2.492114   0.000000
     3  H    2.689833   2.690081   0.000000
     4  H    2.358213   2.358216   2.004171   0.000000
     5  Si   1.472029   1.471999   1.621795   1.519119   0.000000
     6  Cl   2.843688   2.843703   2.088201   3.593302   2.280539
                    6
     6  Cl   0.000000
 Symmetry turned off by external request.
 Stoichiometry    ClH4Si(2)
 Framework group  C1[X(ClH4Si)]
 Deg. of freedom    12
 Full point group                 C1      NOp   1
 Rotational constants (GHZ):          69.4401334           5.3841244           5.3263199
 Leave Link  202 at Sun Apr 14 22:18:46 2024, MaxMem=   104857600 cpu:               0.0 elap:               0.0
 (Enter /opt/g16/l301.exe)
 Standard basis: STO-3G (5D, 7F)
 Ernie: Thresh=  0.10000D-02 Tol=  0.10000D-05 Strict=F.
    22 basis functions,    66 primitive gaussians,    22 cartesian basis functions
    18 alpha electrons       17 beta electrons
       nuclear repulsion energy        89.1934651512 Hartrees.
 IExCor=    0 DFT=F Ex=HF Corr=None ExCW=0 ScaHFX=  1.000000
 ScaDFX=  1.000000  1.000000  1.000000  1.000000 ScalE2=  1.000000  1.000000
 IRadAn=      5 IRanWt=     -1 IRanGd=            0 ICorTp=0 IEmpDi=  4
 NAtoms=    6 NActive=    6 NUniq=    6 SFac= 1.00D+00 NAtFMM=   60 NAOKFM=F Big=F
 Integral buffers will be    131072 words long.
 Raffenetti 2 integral format.
 Two-electron integral symmetry is turned off.
 Leave Link  301 at Sun Apr 14 22:18:46 2024, MaxMem=   104857600 cpu:               0.1 elap:               0.1
 (Enter /opt/g16/l402.exe)
 External calculation of energy, first and second derivatives.
 Running external command "python3 -u ../pes/h4sicl_pes.py R"
         input file       "/home/jh-li/scratch/g16/Gau-266012.EIn"
         output file      "/home/jh-li/scratch/g16/Gau-266012.EOu"
         message file     "/home/jh-li/scratch/g16/Gau-266012.EMs"
         fchk file        "/home/jh-li/scratch/g16/Gau-266012.EFC"
         mat. el file     "/home/jh-li/scratch/g16/Gau-266012.EUF"
 initialization done
 Recovered energy= -751.145627547     dipole=      0.000000000000      0.000000000000      0.000000000000
 NRF= 0 NRA=   0 NVA=   0 HaveQM=F NVQ=       0
 Convergence limit is  0.750E-04 MaxStp= 10000 StMxLn= 3.00D-04 StpMin= 1.00D-06.
 Convergence criteria             0.00011250 0.00007500 0.00045000 0.00030000
  Step  NS  ND Rises OKQ   Scale  Max. Force  RMS Force Max. Disp.  RMS Disp.     Energy   Flag
     1   0   0   F    T  1.00D+00 0.00000000 0.00000000 0.00000000 0.00000000 -751.1456275 ====
 Running external command "python3 -u ../pes/h4sicl_pes.py R"
         input file       "/home/jh-li/scratch/g16/Gau-266012.EIn"
         output file      "/home/jh-li/scratch/g16/Gau-266012.EOu"
         message file     "/home/jh-li/scratch/g16/Gau-266012.EMs"
         fchk file        "/home/jh-li/scratch/g16/Gau-266012.EFC"
         mat. el file     "/home/jh-li/scratch/g16/Gau-266012.EUF"
 initialization done
 Recovered energy= -751.145627547     dipole=      0.000000000000      0.000000000000      0.000000000000
 Energy=    -751.145628     NIter=   0.
 Dipole moment=       0.000000       0.000000       0.000000
 Leave Link  402 at Sun Apr 14 22:18:47 2024, MaxMem=   104857600 cpu:               0.1 elap:               0.8
 (Enter /opt/g16/l716.exe)
 Dipole        = 0.00000000D+00 0.00000000D+00 0.00000000D+00
 -------------------------------------------------------------------
 Center     Atomic                   Forces (Hartrees/Bohr)
 Number     Number              X              Y              Z
 -------------------------------------------------------------------
      1        1          -0.000011223    0.000066399   -0.000007090
      2        1          -0.000009250    0.000064767   -0.000003637
      3        1          -0.000100283    0.000271522   -0.000062344
      4        1          -0.000065683   -0.000053773   -0.000044188
      5       14          -0.000107394   -0.001615345   -0.000065990
      6       17           0.000291859    0.001255383    0.000180985
 -------------------------------------------------------------------
 Cartesian Forces:  Max     0.001615345 RMS     0.000495808
 Force constants in Cartesian coordinates: 
                1             2             3             4             5 
      1  0.181896D-01
      2 -0.869273D-03  0.235216D-01
      3 -0.265396D-03 -0.783244D-03  0.191647D+00
      4  0.339524D-02  0.355598D-03 -0.818263D-04  0.158919D+00
      5 -0.151463D-03  0.808815D-03  0.467368D-03 -0.107312D-02  0.235179D-01
      6  0.103130D-01 -0.338388D-03 -0.151758D-02 -0.678445D-01 -0.448879D-03
      7  0.214059D-02  0.576712D-03 -0.835235D-04 -0.519607D-03 -0.730704D-03
      8  0.153394D-02 -0.534100D-02  0.212274D-03  0.855928D-03 -0.534141D-02
      9 -0.249657D-02 -0.108930D-02  0.102823D-03  0.119435D-02  0.991483D-03
     10  0.203736D-02  0.336291D-02 -0.102047D-02 -0.545262D-02  0.126150D-01
     11  0.115305D-02 -0.116536D-02  0.175715D-02  0.208390D-02 -0.116571D-02
     12 -0.642416D-02  0.123784D-01 -0.360367D-02  0.257687D-02 -0.232790D-02
     13 -0.275363D-01  0.176366D-03  0.220101D-02 -0.154765D+00  0.567814D-03
     14  0.592408D-03 -0.834479D-02  0.116258D-02  0.129531D-02 -0.833798D-02
     15  0.113340D-02  0.556142D-03 -0.185719D+00  0.632958D-01 -0.770857D-04
     16  0.177381D-02 -0.360089D-02 -0.751249D-03 -0.158314D-02 -0.112243D-01
     17 -0.226008D-02 -0.948155D-02 -0.281853D-02 -0.352039D-02 -0.948391D-02
     18 -0.225993D-02 -0.107213D-01 -0.912149D-03  0.861429D-03  0.139494D-02
                6             7             8             9            10 
      6  0.508637D-01
      7 -0.121336D-02  0.464810D-01
      8  0.129239D-02  0.143257D-01  0.130994D-01
      9  0.276611D-02  0.269639D-01  0.900834D-02  0.205606D-01
     10 -0.282733D-02 -0.102113D-02  0.232530D-02 -0.297810D-02  0.390869D-01
     11  0.278983D-03 -0.125006D-01 -0.163879D-01 -0.785958D-02 -0.430734D-01
     12  0.388600D-02 -0.298000D-02  0.146159D-02  0.184227D-02  0.129027D-01
     13  0.622241D-01 -0.468343D-01 -0.201146D-01 -0.206931D-01 -0.410341D-01
     14  0.353149D-04 -0.289020D-01  0.370273D-01 -0.181696D-01  0.232210D-01
     15 -0.584434D-01 -0.206978D-01 -0.126469D-01 -0.269407D-01 -0.964508D-02
     16 -0.648393D-03 -0.249733D-03  0.107067D-02 -0.199166D-02  0.638043D-02
     17 -0.819662D-03  0.272426D-01 -0.230656D-01  0.171261D-01  0.155601D-02
     18  0.244623D-02 -0.199182D-02  0.671729D-03  0.166659D-02  0.356608D-02
               11            12            13            14            15 
     11  0.118052D+00
     12 -0.270931D-01  0.266907D-01
     13  0.527587D-01 -0.964683D-02  0.287930D+00
     14 -0.101267D+00  0.146049D-01 -0.100307D-01  0.116659D+00
     15  0.331835D-01 -0.317665D-01 -0.318096D-01 -0.632566D-02  0.318432D+00
     16 -0.422882D-03  0.356651D-02 -0.177435D-01  0.138264D-01 -0.226836D-02
     17  0.193842D-02  0.980363D-03 -0.233686D-01 -0.357046D-01 -0.146969D-01
     18 -0.266763D-03  0.295284D-02 -0.227194D-02  0.869230D-02 -0.155608D-01
               16            17            18 
     16  0.114186D-01
     17  0.347639D-03  0.757741D-01
     18  0.209184D-02  0.227018D-03  0.940771D-02
 Leave Link  716 at Sun Apr 14 22:18:47 2024, MaxMem=   104857600 cpu:               0.0 elap:               0.0
 (Enter /opt/g16/l123.exe)
 IRC-IRC-IRC-IRC-IRC-IRC-IRC-IRC-IRC-IRC-IRC-IRC-IRC-IRC-IRC-IRC-IRC-IRC
 Pt  2 Step number   1 out of a maximum of  10
 Using modified Bulirsch-Stoer corrector integration.
   Using distance weighted interpolants to fit PES.
 PreDWI: IReCr0= 2 IReCr1= 1 IReCr2= 1 IReCr3= 1
 Modified Bulirsch-Stoer Extrapolation Cycles:
    EPS =    0.000010000000000
    Cycle     1 NS=    48
      PEZero:  N= 2 I= 1 D=  2.48D-04 Err=  5.08D-06
    Cycle     2 NS=    64 Truncation Error =  0.000005078
 BS completed in    2 cycles and     112 integration steps.
 Maximum DWI energy   std dev =  0.000000049 at pt    31
 Maximum DWI gradient std dev =  0.011768646 at pt    11
 SUMMARY OF CORRECTOR INTEGRATION:
   Predictor End Point Energy =  -751.145628
   Old End Point Energy       =  -751.145628
   Corrected End Point Energy =  -751.145628
   Predictor End-Start Dist.  =     0.047620
   Old End-Start Dist.        =     0.047620
   New End-Start Dist.        =     0.047618
   New End-Old End Dist.      =     0.000351
 CORRECTOR INTEGRATION CONVERGENCE:
   Recorrection delta-x convergence threshold:    0.010000
   Delta-x Convergence Met
 Point Number:   2          Path Number:   1
                    CURRENT STRUCTURE
                Cartesian Coordinates (Ang):                
 ---------------------------------------------------------------------
 Center     Atomic                     Coordinates (Angstroms)
 Number     Number                        X           Y           Z
 ---------------------------------------------------------------------
      1          1                    0.203207    1.161176    1.600020
      2          1                    1.530266    1.161280   -0.509358
      3          1                   -1.110481    0.685094   -0.698289
      4          1                   -0.392667    2.500922   -0.246920
      5         14                    0.203447    1.154855    0.128019
      6         17                   -0.169414   -1.082747   -0.106623
 ---------------------------------------------------------------------
   CHANGE IN THE REACTION COORDINATE =    0.04762
   NET REACTION COORDINATE UP TO THIS POINT =    0.09522
  # OF POINTS ALONG THE PATH =   2
  # OF STEPS =   1

 Calculating another point on the path.
 Point Number  3 in FORWARD path direction.
 Using LQA Reaction Path Following.
   LQA: T_Est iteration completed in    3 iterations.
 IRC-IRC-IRC-IRC-IRC-IRC-IRC-IRC-IRC-IRC-IRC-IRC-IRC-IRC-IRC-IRC-IRC-IRC
 Leave Link  123 at Sun Apr 14 22:18:47 2024, MaxMem=   104857600 cpu:               0.0 elap:               0.0
 (Enter /opt/g16/l202.exe)
                          Input orientation:                          
 ---------------------------------------------------------------------
 Center     Atomic      Atomic             Coordinates (Angstroms)
 Number     Number       Type             X           Y           Z
 ---------------------------------------------------------------------
      1          1           0        0.202643    1.164563    1.599914
      2          1           0        1.529993    1.164600   -0.509678
      3          1           0       -1.116005    0.698625   -0.701739
      4          1           0       -0.395846    2.498141   -0.249030
      5         14           0        0.203256    1.151944    0.127901
      6         17           0       -0.168989   -1.080934   -0.106358
 ---------------------------------------------------------------------
                    Distance matrix (angstroms):
                    1          2          3          4          5
     1  H    0.000000
     2  H    2.492436   0.000000
     3  H    2.693239   2.693572   0.000000
     4  H    2.356950   2.356932   1.990435   0.000000
     5  Si   1.472067   1.472039   1.623038   1.520937   0.000000
     6  Cl   2.844598   2.844579   2.101939   3.589095   2.275783
                    6
     6  Cl   0.000000
 Symmetry turned off by external request.
 Stoichiometry    ClH4Si(2)
 Framework group  C1[X(ClH4Si)]
 Deg. of freedom    12
 Full point group                 C1      NOp   1
 Rotational constants (GHZ):          69.1637715           5.4026224           5.3428704
 Leave Link  202 at Sun Apr 14 22:18:47 2024, MaxMem=   104857600 cpu:               0.0 elap:               0.0
 (Enter /opt/g16/l301.exe)
 Standard basis: STO-3G (5D, 7F)
 Ernie: Thresh=  0.10000D-02 Tol=  0.10000D-05 Strict=F.
    22 basis functions,    66 primitive gaussians,    22 cartesian basis functions
    18 alpha electrons       17 beta electrons
       nuclear repulsion energy        89.2736150960 Hartrees.
 IExCor=    0 DFT=F Ex=HF Corr=None ExCW=0 ScaHFX=  1.000000
 ScaDFX=  1.000000  1.000000  1.000000  1.000000 ScalE2=  1.000000  1.000000
 IRadAn=      5 IRanWt=     -1 IRanGd=            0 ICorTp=0 IEmpDi=  4
 NAtoms=    6 NActive=    6 NUniq=    6 SFac= 1.00D+00 NAtFMM=   60 NAOKFM=F Big=F
 Integral buffers will be    131072 words long.
 Raffenetti 2 integral format.
 Two-electron integral symmetry is turned off.
 Leave Link  301 at Sun Apr 14 22:18:47 2024, MaxMem=   104857600 cpu:               0.1 elap:               0.0
 (Enter /opt/g16/l402.exe)
 External calculation of energy, first and second derivatives.
 Running external command "python3 -u ../pes/h4sicl_pes.py R"
         input file       "/home/jh-li/scratch/g16/Gau-266012.EIn"
         output file      "/home/jh-li/scratch/g16/Gau-266012.EOu"
         message file     "/home/jh-li/scratch/g16/Gau-266012.EMs"
         fchk file        "/home/jh-li/scratch/g16/Gau-266012.EFC"
         mat. el file     "/home/jh-li/scratch/g16/Gau-266012.EUF"
 initialization done
 Recovered energy= -751.145657622     dipole=      0.000000000000      0.000000000000      0.000000000000
 NRF= 0 NRA=   0 NVA=   0 HaveQM=F NVQ=       0
 Convergence limit is  0.750E-04 MaxStp= 10000 StMxLn= 3.00D-04 StpMin= 1.00D-06.
 Convergence criteria             0.00011250 0.00007500 0.00045000 0.00030000
  Step  NS  ND Rises OKQ   Scale  Max. Force  RMS Force Max. Disp.  RMS Disp.     Energy   Flag
     1   0   0   F    T  1.00D+00 0.00000000 0.00000000 0.00000000 0.00000000 -751.1456576 ====
 Running external command "python3 -u ../pes/h4sicl_pes.py R"
         input file       "/home/jh-li/scratch/g16/Gau-266012.EIn"
         output file      "/home/jh-li/scratch/g16/Gau-266012.EOu"
         message file     "/home/jh-li/scratch/g16/Gau-266012.EMs"
         fchk file        "/home/jh-li/scratch/g16/Gau-266012.EFC"
         mat. el file     "/home/jh-li/scratch/g16/Gau-266012.EUF"
 initialization done
 Recovered energy= -751.145657622     dipole=      0.000000000000      0.000000000000      0.000000000000
 Energy=    -751.145658     NIter=   0.
 Dipole moment=       0.000000       0.000000       0.000000
 Leave Link  402 at Sun Apr 14 22:18:48 2024, MaxMem=   104857600 cpu:               0.0 elap:               0.8
 (Enter /opt/g16/l716.exe)
 Dipole        = 0.00000000D+00 0.00000000D+00 0.00000000D+00
 -------------------------------------------------------------------
 Center     Atomic                   Forces (Hartrees/Bohr)
 Number     Number              X              Y              Z
 -------------------------------------------------------------------
      1        1          -0.000017858    0.000106663   -0.000009147
      2        1          -0.000014254    0.000105083   -0.000008746
      3        1          -0.000156647    0.000434823   -0.000098029
      4        1          -0.000100920   -0.000079806   -0.000066148
      5       14          -0.000168099   -0.002480976   -0.000104478
      6       17           0.000455792    0.001903945    0.000284242
 -------------------------------------------------------------------
 Cartesian Forces:  Max     0.002480976 RMS     0.000759210
 Force constants in Cartesian coordinates: 
                1             2             3             4             5 
      1  0.182055D-01
      2 -0.848815D-03  0.234458D-01
      3 -0.303805D-03 -0.277944D-04  0.191634D+00
      4  0.340650D-02  0.382851D-03 -0.103718D-03  0.158894D+00
      5 -0.104645D-03  0.778367D-03  0.475095D-03 -0.390265D-03  0.234428D-01
      6  0.103131D-01 -0.299779D-03 -0.149437D-02 -0.678457D-01 -0.754090D-03
      7  0.220694D-02  0.447871D-03 -0.769159D-04 -0.447192D-03 -0.807569D-03
      8  0.160532D-02 -0.551015D-02  0.298634D-03  0.964694D-03 -0.551069D-02
      9 -0.243239D-02 -0.111306D-02  0.141078D-03  0.119799D-02  0.886139D-03
     10  0.198555D-02  0.341299D-02 -0.100964D-02 -0.551767D-02  0.125986D-01
     11  0.116620D-02 -0.126825D-02  0.179121D-02  0.212161D-02 -0.126995D-02
     12 -0.644278D-02  0.123356D-01 -0.366776D-02  0.259338D-02 -0.226268D-02
     13 -0.276364D-01  0.262761D-03  0.218373D-02 -0.154830D+00  0.379509D-04
     14  0.505684D-03 -0.801458D-02  0.282912D-03  0.471770D-03 -0.800577D-02
     15  0.112085D-02 -0.813002D-04 -0.185747D+00  0.632449D-01  0.272229D-03
     16  0.183220D-02 -0.365626D-02 -0.690982D-03 -0.151185D-02 -0.113309D-01
     17 -0.232512D-02 -0.943364D-02 -0.282218D-02 -0.355317D-02 -0.943725D-02
     18 -0.225458D-02 -0.108114D-01 -0.868715D-03  0.915275D-03  0.138323D-02
                6             7             8             9            10 
      6  0.508894D-01
      7 -0.114988D-02  0.460062D-01
      8  0.132054D-02  0.135212D-01  0.117001D-01
      9  0.279962D-02  0.267266D-01  0.850292D-02  0.203143D-01
     10 -0.284151D-02 -0.886396D-03  0.259858D-02 -0.289496D-02  0.389928D-01
     11  0.277247D-03 -0.129749D-01 -0.167023D-01 -0.815582D-02 -0.425939D-01
     12  0.383542D-02 -0.289667D-02  0.163498D-02  0.189828D-02  0.129709D-01
     13  0.621769D-01 -0.466002D-01 -0.194640D-01 -0.205548D-01 -0.410950D-01
     14  0.333298D-03 -0.271102D-01  0.388346D-01 -0.170439D-01  0.225493D-01
     15 -0.585056D-01 -0.205616D-01 -0.122415D-01 -0.268400D-01 -0.989141D-02
     16 -0.649570D-03 -0.282265D-03  0.772201D-03 -0.204327D-02  0.651797D-02
     17 -0.877535D-03  0.269351D-01 -0.228214D-01  0.169310D-01  0.144114D-02
     18  0.247657D-02 -0.204401D-02  0.484144D-03  0.168450D-02  0.366447D-02
               11            12            13            14            15 
     11  0.116436D+00
     12 -0.267999D-01  0.265379D-01
     13  0.528147D-01 -0.989498D-02  0.288344D+00
     14 -0.992542D-01  0.141877D-01 -0.104213D-01  0.113697D+00
     15  0.332248D-01 -0.315981D-01 -0.315569D-01 -0.656530D-02  0.318602D+00
     16 -0.534465D-03  0.366534D-02 -0.181677D-01  0.140064D-01 -0.234830D-02
     17  0.206333D-02  0.908487D-03 -0.232410D-01 -0.372248D-01 -0.146158D-01
     18 -0.337199D-03  0.299598D-02 -0.235077D-02  0.880494D-02 -0.159098D-01
               16            17            18 
     16  0.116088D-01
     17  0.739662D-03  0.768314D-01
     18  0.206569D-02  0.474151D-03  0.962207D-02
 Leave Link  716 at Sun Apr 14 22:18:48 2024, MaxMem=   104857600 cpu:               0.0 elap:               0.0
 (Enter /opt/g16/l123.exe)
 IRC-IRC-IRC-IRC-IRC-IRC-IRC-IRC-IRC-IRC-IRC-IRC-IRC-IRC-IRC-IRC-IRC-IRC
 Pt  3 Step number   1 out of a maximum of  10
 Using modified Bulirsch-Stoer corrector integration.
   Using distance weighted interpolants to fit PES.
 PreDWI: IReCr0= 2 IReCr1= 1 IReCr2= 1 IReCr3= 1
 Modified Bulirsch-Stoer Extrapolation Cycles:
    EPS =    0.000010000000000
    Cycle     1 NS=    48
      PEZero:  N= 2 I= 1 D=  2.48D-04 Err=  5.80D-06
    Cycle     2 NS=    64 Truncation Error =  0.000005803
 BS completed in    2 cycles and     112 integration steps.
 Maximum DWI energy   std dev =  0.000000040 at pt    31
 Maximum DWI gradient std dev =  0.006630564 at pt    12
 SUMMARY OF CORRECTOR INTEGRATION:
   Predictor End Point Energy =  -751.145658
   Old End Point Energy       =  -751.145658
   Corrected End Point Energy =  -751.145658
   Predictor End-Start Dist.  =     0.047623
   Old End-Start Dist.        =     0.047623
   New End-Start Dist.        =     0.047621
   New End-Old End Dist.      =     0.000253
 CORRECTOR INTEGRATION CONVERGENCE:
   Recorrection delta-x convergence threshold:    0.010000
   Delta-x Convergence Met
 Point Number:   3          Path Number:   1
                    CURRENT STRUCTURE
                Cartesian Coordinates (Ang):                
 ---------------------------------------------------------------------
 Center     Atomic                     Coordinates (Angstroms)
 Number     Number                        X           Y           Z
 ---------------------------------------------------------------------
      1          1                    0.202637    1.164577    1.599900
      2          1                    1.529977    1.164614   -0.509679
      3          1                   -1.115944    0.698714   -0.701700
      4          1                   -0.395853    2.498174   -0.249034
      5         14                    0.203255    1.151948    0.127901
      6         17                   -0.168989   -1.080942   -0.106359
 ---------------------------------------------------------------------
   CHANGE IN THE REACTION COORDINATE =    0.04762
   NET REACTION COORDINATE UP TO THIS POINT =    0.14284
  # OF POINTS ALONG THE PATH =   3
  # OF STEPS =   1

 Calculating another point on the path.
 Point Number  4 in FORWARD path direction.
 Using LQA Reaction Path Following.
   LQA: T_Est iteration completed in    3 iterations.
 IRC-IRC-IRC-IRC-IRC-IRC-IRC-IRC-IRC-IRC-IRC-IRC-IRC-IRC-IRC-IRC-IRC-IRC
 Leave Link  123 at Sun Apr 14 22:18:48 2024, MaxMem=   104857600 cpu:               0.0 elap:               0.0
 (Enter /opt/g16/l202.exe)
                          Input orientation:                          
 ---------------------------------------------------------------------
 Center     Atomic      Atomic             Coordinates (Angstroms)
 Number     Number       Type             X           Y           Z
 ---------------------------------------------------------------------
      1          1           0        0.202046    1.168076    1.599757
      2          1           0        1.529637    1.168070   -0.510055
      3          1           0       -1.121278    0.712813   -0.705043
      4          1           0       -0.399027    2.495588   -0.251102
      5         14           0        0.203062    1.149078    0.127780
      6         17           0       -0.168564   -1.079185   -0.106093
 ---------------------------------------------------------------------
                    Distance matrix (angstroms):
                    1          2          3          4          5
     1  H    0.000000
     2  H    2.492750   0.000000
     3  H    2.696396   2.696781   0.000000
     4  H    2.355686   2.355654   1.976359   0.000000
     5  Si   1.472100   1.472072   1.624129   1.522877   0.000000
     6  Cl   2.845603   2.845563   2.116049   3.585129   2.271114
                    6
     6  Cl   0.000000
 Symmetry turned off by external request.
 Stoichiometry    ClH4Si(2)
 Framework group  C1[X(ClH4Si)]
 Deg. of freedom    12
 Full point group                 C1      NOp   1
 Rotational constants (GHZ):          68.8937301           5.4207072           5.3590184
 Leave Link  202 at Sun Apr 14 22:18:48 2024, MaxMem=   104857600 cpu:               0.0 elap:               0.0
 (Enter /opt/g16/l301.exe)
 Standard basis: STO-3G (5D, 7F)
 Ernie: Thresh=  0.10000D-02 Tol=  0.10000D-05 Strict=F.
    22 basis functions,    66 primitive gaussians,    22 cartesian basis functions
    18 alpha electrons       17 beta electrons
       nuclear repulsion energy        89.3515627392 Hartrees.
 IExCor=    0 DFT=F Ex=HF Corr=None ExCW=0 ScaHFX=  1.000000
 ScaDFX=  1.000000  1.000000  1.000000  1.000000 ScalE2=  1.000000  1.000000
 IRadAn=      5 IRanWt=     -1 IRanGd=            0 ICorTp=0 IEmpDi=  4
 NAtoms=    6 NActive=    6 NUniq=    6 SFac= 1.00D+00 NAtFMM=   60 NAOKFM=F Big=F
 Integral buffers will be    131072 words long.
 Raffenetti 2 integral format.
 Two-electron integral symmetry is turned off.
 Leave Link  301 at Sun Apr 14 22:18:48 2024, MaxMem=   104857600 cpu:               0.0 elap:               0.0
 (Enter /opt/g16/l402.exe)
 External calculation of energy, first and second derivatives.
 Running external command "python3 -u ../pes/h4sicl_pes.py R"
         input file       "/home/jh-li/scratch/g16/Gau-266012.EIn"
         output file      "/home/jh-li/scratch/g16/Gau-266012.EOu"
         message file     "/home/jh-li/scratch/g16/Gau-266012.EMs"
         fchk file        "/home/jh-li/scratch/g16/Gau-266012.EFC"
         mat. el file     "/home/jh-li/scratch/g16/Gau-266012.EUF"
 initialization done
 Recovered energy= -751.145701287     dipole=      0.000000000000      0.000000000000      0.000000000000
 NRF= 0 NRA=   0 NVA=   0 HaveQM=F NVQ=       0
 Convergence limit is  0.750E-04 MaxStp= 10000 StMxLn= 3.00D-04 StpMin= 1.00D-06.
 Convergence criteria             0.00011250 0.00007500 0.00045000 0.00030000
  Step  NS  ND Rises OKQ   Scale  Max. Force  RMS Force Max. Disp.  RMS Disp.     Energy   Flag
     1   0   0   F    T  1.00D+00 0.00000000 0.00000000 0.00000000 0.00000000 -751.1457013 ====
 Running external command "python3 -u ../pes/h4sicl_pes.py R"
         input file       "/home/jh-li/scratch/g16/Gau-266012.EIn"
         output file      "/home/jh-li/scratch/g16/Gau-266012.EOu"
         message file     "/home/jh-li/scratch/g16/Gau-266012.EMs"
         fchk file        "/home/jh-li/scratch/g16/Gau-266012.EFC"
         mat. el file     "/home/jh-li/scratch/g16/Gau-266012.EUF"
 initialization done
 Recovered energy= -751.145701287     dipole=      0.000000000000      0.000000000000      0.000000000000
 Energy=    -751.145701     NIter=   0.
 Dipole moment=       0.000000       0.000000       0.000000
 Leave Link  402 at Sun Apr 14 22:18:49 2024, MaxMem=   104857600 cpu:               0.1 elap:               0.9
 (Enter /opt/g16/l716.exe)
 Dipole        = 0.00000000D+00 0.00000000D+00 0.00000000D+00
 -------------------------------------------------------------------
 Center     Atomic                   Forces (Hartrees/Bohr)
 Number     Number              X              Y              Z
 -------------------------------------------------------------------
      1        1          -0.000026175    0.000151548   -0.000012160
      2        1          -0.000020634    0.000150082   -0.000015010
      3        1          -0.000211601    0.000619821   -0.000132710
      4        1          -0.000137272   -0.000102705   -0.000088914
      5       14          -0.000235556   -0.003377620   -0.000146973
      6       17           0.000629218    0.002549392    0.000393416
 -------------------------------------------------------------------
 Cartesian Forces:  Max     0.003377620 RMS     0.001029194
 Force constants in Cartesian coordinates: 
                1             2             3             4             5 
      1  0.182244D-01
      2 -0.826180D-03  0.233783D-01
      3 -0.346406D-03  0.736821D-03  0.191627D+00
      4  0.341767D-02  0.412615D-03 -0.125128D-03  0.158866D+00
      5 -0.572867D-04  0.750610D-03  0.485360D-03  0.304388D-03  0.233757D-01
      6  0.103135D-01 -0.261671D-03 -0.147216D-02 -0.678543D-01 -0.106232D-02
      7  0.227487D-02  0.305969D-03 -0.717191D-04 -0.378830D-03 -0.898935D-03
      8  0.167681D-02 -0.566424D-02  0.383732D-03  0.107234D-02 -0.566489D-02
      9 -0.237338D-02 -0.114638D-02  0.177738D-03  0.120290D-02  0.772993D-03
     10  0.193098D-02  0.346022D-02 -0.998492D-03 -0.558125D-02  0.125764D-01
     11  0.117990D-02 -0.137823D-02  0.182637D-02  0.216012D-02 -0.138081D-02
     12 -0.645797D-02  0.122880D-01 -0.373130D-02  0.260840D-02 -0.219850D-02
     13 -0.277404D-01  0.353957D-03  0.217150D-02 -0.154893D+00 -0.491462D-03
     14  0.413314D-03 -0.771245D-02 -0.611819D-03 -0.370458D-03 -0.770226D-02
     15  0.111127D-02 -0.717697D-03 -0.185781D+00  0.632020D-01  0.626850D-03
     16  0.189286D-02 -0.370521D-02 -0.630960D-03 -0.143664D-02 -0.114299D-01
     17 -0.238786D-02 -0.937661D-02 -0.282229D-02 -0.358121D-02 -0.938092D-02
     18 -0.224664D-02 -0.108968D-01 -0.822389D-03  0.968176D-03  0.137554D-02
                6             7             8             9            10 
      6  0.509268D-01
      7 -0.108961D-02  0.455911D-01
      8  0.134893D-02  0.126688D-01  0.103649D-01
      9  0.283667D-02  0.265190D-01  0.796722D-02  0.200992D-01
     10 -0.285363D-02 -0.735874D-03  0.284443D-02 -0.280063D-02  0.388800D-01
     11  0.275172D-03 -0.134625D-01 -0.170183D-01 -0.846106D-02 -0.420828D-01
     12  0.378103D-02 -0.280212D-02  0.179062D-02  0.195888D-02  0.130328D-01
     13  0.621361D-01 -0.464125D-01 -0.187455D-01 -0.204353D-01 -0.411406D-01
     14  0.634064D-03 -0.252092D-01  0.405188D-01 -0.158495D-01  0.218814D-01
     15 -0.585796D-01 -0.204434D-01 -0.117923D-01 -0.267680D-01 -0.101387D-01
     16 -0.648780D-03 -0.341280D-03  0.482229D-03 -0.211331D-02  0.664451D-02
     17 -0.934558D-03  0.266069D-01 -0.225468D-01  0.167236D-01  0.132692D-02
     18  0.250827D-02 -0.211446D-02  0.301914D-03  0.169336D-02  0.375665D-02
               11            12            13            14            15 
     11  0.114752D+00
     12 -0.264837D-01  0.263700D-01
     13  0.528615D-01 -0.101436D-01  0.288758D+00
     14 -0.971607D-01  0.137708D-01 -0.108648D-01  0.110913D+00
     15  0.332578D-01 -0.314109D-01 -0.313201D-01 -0.683935D-02  0.318789D+00
     16 -0.656722D-03  0.375782D-02 -0.185588D-01  0.141504D-01 -0.240434D-02
     17  0.219013D-02  0.836870D-03 -0.231245D-01 -0.388238D-01 -0.145421D-01
     18 -0.414247D-03  0.303409D-02 -0.240591D-02  0.889522D-02 -0.162486D-01
               16            17            18 
     16  0.117972D-01
     17  0.115598D-02  0.779166D-01
     18  0.203870D-02  0.736329D-03  0.983592D-02
 Leave Link  716 at Sun Apr 14 22:18:49 2024, MaxMem=   104857600 cpu:               0.0 elap:               0.0
 (Enter /opt/g16/l123.exe)
 IRC-IRC-IRC-IRC-IRC-IRC-IRC-IRC-IRC-IRC-IRC-IRC-IRC-IRC-IRC-IRC-IRC-IRC
 Pt  4 Step number   1 out of a maximum of  10
 Using modified Bulirsch-Stoer corrector integration.
   Using distance weighted interpolants to fit PES.
 PreDWI: IReCr0= 2 IReCr1= 1 IReCr2= 1 IReCr3= 1
 Modified Bulirsch-Stoer Extrapolation Cycles:
    EPS =    0.000010000000000
    Cycle     1 NS=    48
      PEZero:  N= 2 I= 1 D=  2.48D-04 Err=  6.18D-06
    Cycle     2 NS=    64 Truncation Error =  0.000006180
 BS completed in    2 cycles and     112 integration steps.
 Maximum DWI energy   std dev =  0.000000038 at pt    31
 Maximum DWI gradient std dev =  0.004692999 at pt    12
 SUMMARY OF CORRECTOR INTEGRATION:
   Predictor End Point Energy =  -751.145701
   Old End Point Energy       =  -751.145701
   Corrected End Point Energy =  -751.145701
   Predictor End-Start Dist.  =     0.047624
   Old End-Start Dist.        =     0.047624
   New End-Start Dist.        =     0.047622
   New End-Old End Dist.      =     0.000202
 CORRECTOR INTEGRATION CONVERGENCE:
   Recorrection delta-x convergence threshold:    0.010000
   Delta-x Convergence Met
 Point Number:   4          Path Number:   1
                    CURRENT STRUCTURE
                Cartesian Coordinates (Ang):                
 ---------------------------------------------------------------------
 Center     Atomic                     Coordinates (Angstroms)
 Number     Number                        X           Y           Z
 ---------------------------------------------------------------------
      1          1                    0.202041    1.168085    1.599743
      2          1                    1.529622    1.168079   -0.510055
      3          1                   -1.121220    0.712878   -0.705006
      4          1                   -0.399032    2.495615   -0.251105
      5         14                    0.203061    1.149081    0.127779
      6         17                   -0.168564   -1.079191   -0.106093
 ---------------------------------------------------------------------
   CHANGE IN THE REACTION COORDINATE =    0.04762
   NET REACTION COORDINATE UP TO THIS POINT =    0.19046
  # OF POINTS ALONG THE PATH =   4
  # OF STEPS =   1

 Calculating another point on the path.
 Point Number  5 in FORWARD path direction.
 Using LQA Reaction Path Following.
   LQA: T_Est iteration completed in    3 iterations.
 IRC-IRC-IRC-IRC-IRC-IRC-IRC-IRC-IRC-IRC-IRC-IRC-IRC-IRC-IRC-IRC-IRC-IRC
 Leave Link  123 at Sun Apr 14 22:18:49 2024, MaxMem=   104857600 cpu:               0.0 elap:               0.0
 (Enter /opt/g16/l202.exe)
                          Input orientation:                          
 ---------------------------------------------------------------------
 Center     Atomic      Atomic             Coordinates (Angstroms)
 Number     Number       Type             X           Y           Z
 ---------------------------------------------------------------------
      1          1           0        0.201408    1.171686    1.599561
      2          1           0        1.529217    1.171651   -0.510478
      3          1           0       -1.126332    0.727516   -0.708215
      4          1           0       -0.402178    2.493239   -0.253136
      5         14           0        0.202863    1.146248    0.127656
      6         17           0       -0.168139   -1.077490   -0.105827
 ---------------------------------------------------------------------
                    Distance matrix (angstroms):
                    1          2          3          4          5
     1  H    0.000000
     2  H    2.493059   0.000000
     3  H    2.699261   2.699685   0.000000
     4  H    2.354423   2.354380   1.961957   0.000000
     5  Si   1.472126   1.472099   1.625046   1.524946   0.000000
     6  Cl   2.846701   2.846646   2.130505   3.581421   2.266532
                    6
     6  Cl   0.000000
 Symmetry turned off by external request.
 Stoichiometry    ClH4Si(2)
 Framework group  C1[X(ClH4Si)]
 Deg. of freedom    12
 Full point group                 C1      NOp   1
 Rotational constants (GHZ):          68.6313066           5.4383646           5.3747605
 Leave Link  202 at Sun Apr 14 22:18:49 2024, MaxMem=   104857600 cpu:               0.0 elap:               0.0
 (Enter /opt/g16/l301.exe)
 Standard basis: STO-3G (5D, 7F)
 Ernie: Thresh=  0.10000D-02 Tol=  0.10000D-05 Strict=F.
    22 basis functions,    66 primitive gaussians,    22 cartesian basis functions
    18 alpha electrons       17 beta electrons
       nuclear repulsion energy        89.4274083768 Hartrees.
 IExCor=    0 DFT=F Ex=HF Corr=None ExCW=0 ScaHFX=  1.000000
 ScaDFX=  1.000000  1.000000  1.000000  1.000000 ScalE2=  1.000000  1.000000
 IRadAn=      5 IRanWt=     -1 IRanGd=            0 ICorTp=0 IEmpDi=  4
 NAtoms=    6 NActive=    6 NUniq=    6 SFac= 1.00D+00 NAtFMM=   60 NAOKFM=F Big=F
 Integral buffers will be    131072 words long.
 Raffenetti 2 integral format.
 Two-electron integral symmetry is turned off.
 Leave Link  301 at Sun Apr 14 22:18:49 2024, MaxMem=   104857600 cpu:               0.1 elap:               0.1
 (Enter /opt/g16/l402.exe)
 External calculation of energy, first and second derivatives.
 Running external command "python3 -u ../pes/h4sicl_pes.py R"
         input file       "/home/jh-li/scratch/g16/Gau-266012.EIn"
         output file      "/home/jh-li/scratch/g16/Gau-266012.EOu"
         message file     "/home/jh-li/scratch/g16/Gau-266012.EMs"
         fchk file        "/home/jh-li/scratch/g16/Gau-266012.EFC"
         mat. el file     "/home/jh-li/scratch/g16/Gau-266012.EUF"
 initialization done
 Recovered energy= -751.145759323     dipole=      0.000000000000      0.000000000000      0.000000000000
 NRF= 0 NRA=   0 NVA=   0 HaveQM=F NVQ=       0
 Convergence limit is  0.750E-04 MaxStp= 10000 StMxLn= 3.00D-04 StpMin= 1.00D-06.
 Convergence criteria             0.00011250 0.00007500 0.00045000 0.00030000
  Step  NS  ND Rises OKQ   Scale  Max. Force  RMS Force Max. Disp.  RMS Disp.     Energy   Flag
     1   0   0   F    T  1.00D+00 0.00000000 0.00000000 0.00000000 0.00000000 -751.1457593 ====
 Running external command "python3 -u ../pes/h4sicl_pes.py R"
         input file       "/home/jh-li/scratch/g16/Gau-266012.EIn"
         output file      "/home/jh-li/scratch/g16/Gau-266012.EOu"
         message file     "/home/jh-li/scratch/g16/Gau-266012.EMs"
         fchk file        "/home/jh-li/scratch/g16/Gau-266012.EFC"
         mat. el file     "/home/jh-li/scratch/g16/Gau-266012.EUF"
 initialization done
 Recovered energy= -751.145759323     dipole=      0.000000000000      0.000000000000      0.000000000000
 Energy=    -751.145759     NIter=   0.
 Dipole moment=       0.000000       0.000000       0.000000
 Leave Link  402 at Sun Apr 14 22:18:50 2024, MaxMem=   104857600 cpu:               0.0 elap:               0.8
 (Enter /opt/g16/l716.exe)
 Dipole        = 0.00000000D+00 0.00000000D+00 0.00000000D+00
 -------------------------------------------------------------------
 Center     Atomic                   Forces (Hartrees/Bohr)
 Number     Number              X              Y              Z
 -------------------------------------------------------------------
      1        1          -0.000036341    0.000200802   -0.000016247
      2        1          -0.000028759    0.000199433   -0.000022476
      3        1          -0.000263113    0.000825801   -0.000165183
      4        1          -0.000174097   -0.000121460   -0.000112013
      5       14          -0.000311273   -0.004300328   -0.000194604
      6       17           0.000811510    0.003187048    0.000508121
 -------------------------------------------------------------------
 Cartesian Forces:  Max     0.004300328 RMS     0.001304281
 Force constants in Cartesian coordinates: 
                1             2             3             4             5 
      1  0.182462D-01
      2 -0.801448D-03  0.233196D-01
      3 -0.395234D-03  0.151027D-02  0.191623D+00
      4  0.342861D-02  0.444674D-03 -0.146078D-03  0.158835D+00
      5 -0.950108D-05  0.725763D-03  0.497966D-03  0.100930D-02  0.233170D-01
      6  0.103141D-01 -0.224122D-03 -0.145072D-02 -0.678693D-01 -0.137303D-02
      7  0.234421D-02  0.151155D-03 -0.677735D-04 -0.314438D-03 -0.100459D-02
      8  0.174755D-02 -0.580181D-02  0.466380D-03  0.117745D-02 -0.580256D-02
      9 -0.232022D-02 -0.118922D-02  0.212882D-03  0.120915D-02  0.652241D-03
     10  0.187387D-02  0.350380D-02 -0.987090D-03 -0.564288D-02  0.125479D-01
     11  0.119386D-02 -0.149537D-02  0.186228D-02  0.219921D-02 -0.149861D-02
     12 -0.646900D-02  0.122353D-01 -0.379400D-02  0.262163D-02 -0.213568D-02
     13 -0.278480D-01  0.450560D-03  0.216723D-02 -0.154954D+00 -0.101876D-02
     14  0.316252D-03 -0.744024D-02 -0.151912D-02 -0.122750D-02 -0.742899D-02
     15  0.110686D-02 -0.135281D-02 -0.185820D+00  0.631673D-01  0.986546D-03
     16  0.195544D-02 -0.374740D-02 -0.572138D-03 -0.135850D-02 -0.115213D-01
     17 -0.244793D-02 -0.931052D-02 -0.281930D-02 -0.360503D-02 -0.931526D-02
     18 -0.223612D-02 -0.109772D-01 -0.773704D-03  0.101944D-02  0.137189D-02
                6             7             8             9            10 
      6  0.509748D-01
      7 -0.103296D-02  0.452418D-01
      8  0.137751D-02  0.117711D-01  0.910610D-02
      9  0.287737D-02  0.263443D-01  0.740306D-02  0.199184D-01
     10 -0.286344D-02 -0.570650D-03  0.305878D-02 -0.269570D-02  0.387457D-01
     11  0.272816D-03 -0.139624D-01 -0.173332D-01 -0.877448D-02 -0.415381D-01
     12  0.372294D-02 -0.269697D-02  0.192620D-02  0.202380D-02  0.130873D-01
     13  0.621006D-01 -0.462769D-01 -0.179577D-01 -0.203365D-01 -0.411661D-01
     14  0.936740D-03 -0.232033D-01  0.420672D-01 -0.145890D-01  0.212197D-01
     15 -0.586647D-01 -0.203459D-01 -0.112991D-01 -0.267280D-01 -0.103846D-01
     16 -0.645797D-03 -0.426314D-03  0.202831D-03 -0.220134D-02  0.675836D-02
     17 -0.990366D-03  0.262584D-01 -0.222466D-01  0.165039D-01  0.121429D-02
     18  0.254138D-02 -0.220282D-02  0.126328D-03  0.169337D-02  0.384155D-02
               11            12            13            14            15 
     11  0.113000D+00
     12 -0.261447D-01  0.261865D-01
     13  0.528971D-01 -0.103904D-01  0.289168D+00
     14 -0.949861D-01  0.133568D-01 -0.113639D-01  0.108315D+00
     15  0.332826D-01 -0.312038D-01 -0.311034D-01 -0.714910D-02  0.318992D+00
     16 -0.789723D-03  0.384294D-02 -0.189122D-01  0.142585D-01 -0.243453D-02
     17  0.231786D-02  0.766176D-03 -0.230179D-01 -0.404956D-01 -0.144748D-01
     18 -0.498008D-03  0.306651D-02 -0.243532D-02  0.896297D-02 -0.165743D-01
               16            17            18 
     16  0.119817D-01
     17  0.159399D-02  0.790300D-01
     18  0.201020D-02  0.101208D-02  0.100476D-01
 Leave Link  716 at Sun Apr 14 22:18:50 2024, MaxMem=   104857600 cpu:               0.0 elap:               0.0
 (Enter /opt/g16/l123.exe)
 IRC-IRC-IRC-IRC-IRC-IRC-IRC-IRC-IRC-IRC-IRC-IRC-IRC-IRC-IRC-IRC-IRC-IRC
 Pt  5 Step number   1 out of a maximum of  10
 Using modified Bulirsch-Stoer corrector integration.
   Using distance weighted interpolants to fit PES.
 PreDWI: IReCr0= 2 IReCr1= 1 IReCr2= 1 IReCr3= 1
 Modified Bulirsch-Stoer Extrapolation Cycles:
    EPS =    0.000010000000000
    Cycle     1 NS=    48
      PEZero:  N= 2 I= 1 D=  2.48D-04 Err=  6.31D-06
    Cycle     2 NS=    64 Truncation Error =  0.000006311
 BS completed in    2 cycles and     112 integration steps.
 Maximum DWI energy   std dev =  0.000000035 at pt    23
 Maximum DWI gradient std dev =  0.003666816 at pt    12
 SUMMARY OF CORRECTOR INTEGRATION:
   Predictor End Point Energy =  -751.145759
   Old End Point Energy       =  -751.145759
   Corrected End Point Energy =  -751.145759
   Predictor End-Start Dist.  =     0.047625
   Old End-Start Dist.        =     0.047625
   New End-Start Dist.        =     0.047623
   New End-Old End Dist.      =     0.000171
 CORRECTOR INTEGRATION CONVERGENCE:
   Recorrection delta-x convergence threshold:    0.010000
   Delta-x Convergence Met
 Point Number:   5          Path Number:   1
                    CURRENT STRUCTURE
                Cartesian Coordinates (Ang):                
 ---------------------------------------------------------------------
 Center     Atomic                     Coordinates (Angstroms)
 Number     Number                        X           Y           Z
 ---------------------------------------------------------------------
      1          1                    0.201404    1.171692    1.599549
      2          1                    1.529204    1.171657   -0.510477
      3          1                   -1.126278    0.727564   -0.708180
      4          1                   -0.402182    2.493263   -0.253139
      5         14                    0.202862    1.146250    0.127655
      6         17                   -0.168139   -1.077494   -0.105827
 ---------------------------------------------------------------------
   CHANGE IN THE REACTION COORDINATE =    0.04762
   NET REACTION COORDINATE UP TO THIS POINT =    0.23809
  # OF POINTS ALONG THE PATH =   5
  # OF STEPS =   1

 Calculating another point on the path.
 Point Number  6 in FORWARD path direction.
 Using LQA Reaction Path Following.
   LQA: T_Est iteration completed in    3 iterations.
 IRC-IRC-IRC-IRC-IRC-IRC-IRC-IRC-IRC-IRC-IRC-IRC-IRC-IRC-IRC-IRC-IRC-IRC
 Leave Link  123 at Sun Apr 14 22:18:50 2024, MaxMem=   104857600 cpu:               0.0 elap:               0.0
 (Enter /opt/g16/l202.exe)
                          Input orientation:                          
 ---------------------------------------------------------------------
 Center     Atomic      Atomic             Coordinates (Angstroms)
 Number     Number       Type             X           Y           Z
 ---------------------------------------------------------------------
      1          1           0        0.200720    1.175387    1.599326
      2          1           0        1.528733    1.175330   -0.510944
      3          1           0       -1.131137    0.742716   -0.711232
      4          1           0       -0.405282    2.491110   -0.255129
      5         14           0        0.202657    1.143453    0.127527
      6         17           0       -0.167714   -1.075848   -0.105561
 ---------------------------------------------------------------------
                    Distance matrix (angstroms):
                    1          2          3          4          5
     1  H    0.000000
     2  H    2.493363   0.000000
     3  H    2.701800   2.702254   0.000000
     4  H    2.353161   2.353111   1.947249   0.000000
     5  Si   1.472147   1.472120   1.625766   1.527152   0.000000
     6  Cl   2.847883   2.847818   2.145272   3.577988   2.262035
                    6
     6  Cl   0.000000
 Symmetry turned off by external request.
 Stoichiometry    ClH4Si(2)
 Framework group  C1[X(ClH4Si)]
 Deg. of freedom    12
 Full point group                 C1      NOp   1
 Rotational constants (GHZ):          68.3778616           5.4555882           5.3901012
 Leave Link  202 at Sun Apr 14 22:18:50 2024, MaxMem=   104857600 cpu:               0.0 elap:               0.0
 (Enter /opt/g16/l301.exe)
 Standard basis: STO-3G (5D, 7F)
 Ernie: Thresh=  0.10000D-02 Tol=  0.10000D-05 Strict=F.
    22 basis functions,    66 primitive gaussians,    22 cartesian basis functions
    18 alpha electrons       17 beta electrons
       nuclear repulsion energy        89.5013084304 Hartrees.
 IExCor=    0 DFT=F Ex=HF Corr=None ExCW=0 ScaHFX=  1.000000
 ScaDFX=  1.000000  1.000000  1.000000  1.000000 ScalE2=  1.000000  1.000000
 IRadAn=      5 IRanWt=     -1 IRanGd=            0 ICorTp=0 IEmpDi=  4
 NAtoms=    6 NActive=    6 NUniq=    6 SFac= 1.00D+00 NAtFMM=   60 NAOKFM=F Big=F
 Integral buffers will be    131072 words long.
 Raffenetti 2 integral format.
 Two-electron integral symmetry is turned off.
 Leave Link  301 at Sun Apr 14 22:18:50 2024, MaxMem=   104857600 cpu:               0.0 elap:               0.0
 (Enter /opt/g16/l402.exe)
 External calculation of energy, first and second derivatives.
 Running external command "python3 -u ../pes/h4sicl_pes.py R"
         input file       "/home/jh-li/scratch/g16/Gau-266012.EIn"
         output file      "/home/jh-li/scratch/g16/Gau-266012.EOu"
         message file     "/home/jh-li/scratch/g16/Gau-266012.EMs"
         fchk file        "/home/jh-li/scratch/g16/Gau-266012.EFC"
         mat. el file     "/home/jh-li/scratch/g16/Gau-266012.EUF"
 initialization done
 Recovered energy= -751.145832438     dipole=      0.000000000000      0.000000000000      0.000000000000
 NRF= 0 NRA=   0 NVA=   0 HaveQM=F NVQ=       0
 Convergence limit is  0.750E-04 MaxStp= 10000 StMxLn= 3.00D-04 StpMin= 1.00D-06.
 Convergence criteria             0.00011250 0.00007500 0.00045000 0.00030000
  Step  NS  ND Rises OKQ   Scale  Max. Force  RMS Force Max. Disp.  RMS Disp.     Energy   Flag
     1   0   0   F    T  1.00D+00 0.00000000 0.00000000 0.00000000 0.00000000 -751.1458324 ====
 Running external command "python3 -u ../pes/h4sicl_pes.py R"
         input file       "/home/jh-li/scratch/g16/Gau-266012.EIn"
         output file      "/home/jh-li/scratch/g16/Gau-266012.EOu"
         message file     "/home/jh-li/scratch/g16/Gau-266012.EMs"
         fchk file        "/home/jh-li/scratch/g16/Gau-266012.EFC"
         mat. el file     "/home/jh-li/scratch/g16/Gau-266012.EUF"
 initialization done
 Recovered energy= -751.145832438     dipole=      0.000000000000      0.000000000000      0.000000000000
 Energy=    -751.145832     NIter=   0.
 Dipole moment=       0.000000       0.000000       0.000000
 Leave Link  402 at Sun Apr 14 22:18:51 2024, MaxMem=   104857600 cpu:               0.0 elap:               0.8
 (Enter /opt/g16/l716.exe)
 Dipole        = 0.00000000D+00 0.00000000D+00 0.00000000D+00
 -------------------------------------------------------------------
 Center     Atomic                   Forces (Hartrees/Bohr)
 Number     Number              X              Y              Z
 -------------------------------------------------------------------
      1        1          -0.000048520    0.000254056   -0.000021528
      2        1          -0.000038823    0.000252773   -0.000031243
      3        1          -0.000309211    0.001051843   -0.000194232
      4        1          -0.000210648   -0.000134933   -0.000134958
      5       14          -0.000396974   -0.005243573   -0.000248472
      6       17           0.001002029    0.003811897    0.000627974
 -------------------------------------------------------------------
 Cartesian Forces:  Max     0.005243573 RMS     0.001582853
 Force constants in Cartesian coordinates: 
                1             2             3             4             5 
      1  0.182709D-01
      2 -0.774786D-03  0.232698D-01
      3 -0.451415D-03  0.229193D-02  0.191623D+00
      4  0.343924D-02  0.478742D-03 -0.166608D-03  0.158800D+00
      5  0.385858D-04  0.703995D-03  0.512656D-03  0.172329D-02  0.232672D-01
      6  0.103146D-01 -0.187166D-03 -0.142991D-02 -0.678904D-01 -0.168587D-02
      7  0.241477D-02 -0.160374D-04 -0.649114D-04 -0.254000D-03 -0.112396D-02
      8  0.181667D-02 -0.592157D-02  0.545472D-03  0.127864D-02 -0.592241D-02
      9 -0.227350D-02 -0.124127D-02  0.246645D-03  0.121681D-02  0.524265D-03
     10  0.181448D-02  0.354300D-02 -0.975574D-03 -0.570205D-02  0.125126D-01
     11  0.120780D-02 -0.161976D-02  0.189866D-02  0.223860D-02 -0.162353D-02
     12 -0.647523D-02  0.121772D-01 -0.385552D-02  0.263277D-02 -0.207465D-02
     13 -0.279585D-01  0.553117D-03  0.217300D-02 -0.155011D+00 -0.154279D-02
     14  0.215668D-03 -0.719920D-02 -0.243610D-02 -0.209567D-02 -0.718707D-02
     15  0.110903D-02 -0.198626D-02 -0.185863D+00  0.631412D-01  0.135133D-02
     16  0.201954D-02 -0.378272D-02 -0.515452D-03 -0.127842D-02 -0.116047D-01
     17 -0.250507D-02 -0.923581D-02 -0.281382D-02 -0.362517D-02 -0.924080D-02
     18 -0.222307D-02 -0.110522D-01 -0.723238D-03  0.106840D-02  0.137220D-02
                6             7             8             9            10 
      6  0.510330D-01
      7 -0.980461D-03  0.449647D-01
      8  0.140606D-02  0.108325D-01  0.793655D-02
      9  0.292174D-02  0.262052D-01  0.681310D-02  0.197754D-01
     10 -0.287051D-02 -0.392122D-03  0.323775D-02 -0.258106D-02  0.385876D-01
     11  0.270158D-03 -0.144737D-01 -0.176440D-01 -0.909516D-02 -0.409586D-01
     12  0.366123D-02 -0.258208D-02  0.203937D-02  0.209258D-02  0.131333D-01
     13  0.620703D-01 -0.461991D-01 -0.171012D-01 -0.202611D-01 -0.411670D-01
     14  0.124083D-02 -0.210997D-01  0.434671D-01 -0.132671D-01  0.205674D-01
     15 -0.587609D-01 -0.202715D-01 -0.107622D-01 -0.267234D-01 -0.106261D-01
     16 -0.640447D-03 -0.536122D-03 -0.634745D-04 -0.230651D-02  0.685789D-02
     17 -0.104451D-02  0.258904D-01 -0.219268D-01  0.162722D-01  0.110407D-02
     18  0.257587D-02 -0.230827D-02 -0.410329D-04  0.168501D-02  0.391814D-02
               11            12            13            14            15 
     11  0.111177D+00
     12 -0.257829D-01  0.259866D-01
     13  0.529194D-01 -0.106328D-01  0.289568D+00
     14 -0.927309D-01  0.129480D-01 -0.119199D-01  0.105913D+00
     15  0.332982D-01 -0.309754D-01 -0.309102D-01 -0.749507D-02  0.319208D+00
     16 -0.933283D-03  0.391970D-02 -0.192241D-01  0.143311D-01 -0.243746D-02
     17  0.244530D-02  0.696955D-03 -0.229190D-01 -0.422327D-01 -0.144125D-01
     18 -0.588383D-03  0.309258D-02 -0.243754D-02  0.900846D-02 -0.168847D-01
               16            17            18 
     16  0.121605D-01
     17  0.205026D-02  0.801721D-01
     18  0.197971D-02  0.129926D-02  0.102555D-01
[...]
 Leave Link  123 at Sun Apr 14 22:20:55 2024, MaxMem=   104857600 cpu:               0.0 elap:               0.0
 (Enter /opt/g16/l202.exe)
                          Input orientation:                          
 ---------------------------------------------------------------------
 Center     Atomic      Atomic             Coordinates (Angstroms)
 Number     Number       Type             X           Y           Z
 ---------------------------------------------------------------------
      1          1           0        0.213361    1.124451    1.597493
      2          1           0        1.533196    1.123930   -0.497248
      3          1           0       -0.925382    0.476256   -0.582647
      4          1           0       -0.299953    2.642022   -0.189504
      5         14           0        0.214649    1.278588    0.135077
      6         17           0       -0.186803   -1.177898   -0.117566
 ---------------------------------------------------------------------
                    Distance matrix (angstroms):
                    1          2          3          4          5
     1  H    0.000000
     2  H    2.475865   0.000000
     3  H    2.543600   2.543891   0.000000
     4  H    2.399973   2.399947   2.288289   0.000000
     5  Si   1.470518   1.470483   1.567971   1.493024   0.000000
     6  Cl   2.898685   2.898442   1.870301   3.822273   2.501863
                    6
     6  Cl   0.000000
 Symmetry turned off by external request.
 Stoichiometry    ClH4Si(2)
 Framework group  C1[X(ClH4Si)]
 Deg. of freedom    12
 Full point group                 C1      NOp   1
 Rotational constants (GHZ):          78.0713065           4.5631841           4.5510443
 Leave Link  202 at Sun Apr 14 22:20:55 2024, MaxMem=   104857600 cpu:               0.0 elap:               0.0
 (Enter /opt/g16/l301.exe)
 Standard basis: STO-3G (5D, 7F)
 Ernie: Thresh=  0.10000D-02 Tol=  0.10000D-05 Strict=F.
    22 basis functions,    66 primitive gaussians,    22 cartesian basis functions
    18 alpha electrons       17 beta electrons
       nuclear repulsion energy        84.7760094737 Hartrees.
 IExCor=    0 DFT=F Ex=HF Corr=None ExCW=0 ScaHFX=  1.000000
 ScaDFX=  1.000000  1.000000  1.000000  1.000000 ScalE2=  1.000000  1.000000
 IRadAn=      5 IRanWt=     -1 IRanGd=            0 ICorTp=0 IEmpDi=  4
 NAtoms=    6 NActive=    6 NUniq=    6 SFac= 1.00D+00 NAtFMM=   60 NAOKFM=F Big=F
 Integral buffers will be    131072 words long.
 Raffenetti 2 integral format.
 Two-electron integral symmetry is turned off.
 Leave Link  301 at Sun Apr 14 22:20:55 2024, MaxMem=   104857600 cpu:               0.0 elap:               0.0
 (Enter /opt/g16/l402.exe)
 External calculation of energy, first and second derivatives.
 Running external command "python3 -u ../pes/h4sicl_pes.py R"
         input file       "/home/jh-li/scratch/g16/Gau-266012.EIn"
         output file      "/home/jh-li/scratch/g16/Gau-266012.EOu"
         message file     "/home/jh-li/scratch/g16/Gau-266012.EMs"
         fchk file        "/home/jh-li/scratch/g16/Gau-266012.EFC"
         mat. el file     "/home/jh-li/scratch/g16/Gau-266012.EUF"
 initialization done
 Recovered energy= -751.148428554     dipole=      0.000000000000      0.000000000000      0.000000000000
 NRF= 0 NRA=   0 NVA=   0 HaveQM=F NVQ=       0
 Convergence limit is  0.750E-04 MaxStp= 10000 StMxLn= 3.00D-04 StpMin= 1.00D-06.
 Convergence criteria             0.00011250 0.00007500 0.00045000 0.00030000
  Step  NS  ND Rises OKQ   Scale  Max. Force  RMS Force Max. Disp.  RMS Disp.     Energy   Flag
     1   0   0   F    T  1.00D+00 0.00000000 0.00000000 0.00000000 0.00000000 -751.1484286 ====
 Running external command "python3 -u ../pes/h4sicl_pes.py R"
         input file       "/home/jh-li/scratch/g16/Gau-266012.EIn"
         output file      "/home/jh-li/scratch/g16/Gau-266012.EOu"
         message file     "/home/jh-li/scratch/g16/Gau-266012.EMs"
         fchk file        "/home/jh-li/scratch/g16/Gau-266012.EFC"
         mat. el file     "/home/jh-li/scratch/g16/Gau-266012.EUF"
 initialization done
 Recovered energy= -751.148428554     dipole=      0.000000000000      0.000000000000      0.000000000000
 Energy=    -751.148429     NIter=   0.
 Dipole moment=       0.000000       0.000000       0.000000
 Leave Link  402 at Sun Apr 14 22:20:56 2024, MaxMem=   104857600 cpu:               0.0 elap:               0.8
 (Enter /opt/g16/l716.exe)
 Dipole        = 0.00000000D+00 0.00000000D+00 0.00000000D+00
 -------------------------------------------------------------------
 Center     Atomic                   Forces (Hartrees/Bohr)
 Number     Number              X              Y              Z
 -------------------------------------------------------------------
      1        1           0.000039403    0.000060112   -0.000002623
      2        1           0.000016219    0.000059501    0.000040129
      3        1           0.000345673   -0.000195572    0.000215258
      4        1           0.000100650    0.000293052    0.000062200
      5       14           0.000973464    0.008048615    0.000611842
      6       17          -0.001478151   -0.008279701   -0.000928769
 -------------------------------------------------------------------
 Cartesian Forces:  Max     0.008279701 RMS     0.002769052
 Force constants in Cartesian coordinates: 
                1             2             3             4             5 
      1  0.186465D-01
      2 -0.792272D-03  0.257100D-01
      3 -0.537466D-03 -0.197461D-01  0.192072D+00
      4  0.290491D-02  0.151393D-03  0.601115D-03  0.159316D+00
      5 -0.127060D-02  0.169236D-02  0.776532D-03 -0.182104D-01  0.257249D-01
      6  0.107471D-01 -0.148541D-02 -0.252535D-02 -0.678494D-01  0.783065D-02
      7  0.859892D-03  0.132485D-02 -0.521734D-03 -0.382038D-02 -0.200210D-02
      8 -0.191690D-03 -0.111243D-02 -0.775080D-03 -0.780265D-03 -0.110867D-02
      9 -0.558312D-02 -0.285868D-02 -0.197710D-02  0.172111D-02  0.243070D-02
     10  0.252054D-02  0.201114D-02 -0.989152D-03 -0.341144D-02  0.121163D-01
     11  0.983260D-03 -0.645022D-04  0.136225D-02  0.165623D-02 -0.699629D-04
     12 -0.522430D-02  0.124690D-01 -0.179998D-02  0.185068D-02 -0.356719D-02
     13 -0.255201D-01 -0.738877D-03  0.249451D-02 -0.153768D+00  0.163453D-01
     14  0.119523D-02 -0.186009D-01  0.193846D-01  0.180602D-01 -0.186053D-01
     15  0.209050D-02  0.184147D-01 -0.185351D+00  0.638575D-01 -0.864197D-02
     16  0.589066D-03 -0.195489D-02 -0.104813D-02 -0.122822D-02 -0.697534D-02
     17  0.757748D-04 -0.762128D-02 -0.100228D-02 -0.877474D-03 -0.763011D-02
     18 -0.149285D-02 -0.679163D-02 -0.424607D-03 -0.178764D-03  0.117082D-02
                6             7             8             9            10 
      6  0.513367D-01
      7 -0.333540D-02  0.682699D-01
      8  0.166929D-03  0.304714D-01  0.449218D-01
      9  0.270757D-02  0.369221D-01  0.191805D-01  0.328761D-01
     10 -0.238871D-02  0.214941D-03 -0.553816D-02 -0.166664D-02  0.378040D-01
     11  0.301834D-03 -0.228724D-02 -0.901886D-02 -0.143415D-02 -0.484511D-01
     12  0.413739D-02 -0.166952D-02 -0.348531D-02  0.181665D-02  0.107155D-01
     13  0.634536D-01 -0.625498D-01 -0.277446D-01 -0.286697D-01 -0.393968D-01
     14 -0.731448D-02 -0.539363D-01 -0.168805D-01 -0.339545D-01  0.370803D-01
     15 -0.570461D-01 -0.286696D-01 -0.174694D-01 -0.350578D-01 -0.656769D-02
     16 -0.623124D-03 -0.298085D-02  0.377350D-02 -0.272689D-02  0.226627D-02
     17  0.500274D-03  0.264334D-01 -0.167966D-01  0.166387D-01  0.278223D-02
     18  0.139076D-02 -0.272916D-02  0.237733D-02 -0.367641D-03  0.894941D-03
               11            12            13            14            15 
     11  0.148213D+00
     12 -0.305602D-01  0.275768D-01
     13  0.477825D-01 -0.657073D-02  0.285380D+00
     14 -0.137529D+00  0.233901D-01 -0.107485D-01  0.202293D+00
     15  0.301328D-01 -0.331373D-01 -0.325616D-01 -0.676217D-02  0.316501D+00
     16  0.314748D-03  0.895456D-03 -0.412553D-02  0.835110D-02  0.185717D-02
     17 -0.152541D-02  0.175399D-02 -0.248979D-01 -0.106876D-01 -0.156752D-01
     18  0.197295D-03  0.140788D-02  0.185885D-02  0.525864D-02 -0.590248D-02
               16            17            18 
     16  0.547537D-02
     17 -0.351108D-02  0.442553D-01
     18  0.164362D-02 -0.221370D-02  0.389579D-02
 Leave Link  716 at Sun Apr 14 22:20:56 2024, MaxMem=   104857600 cpu:               0.0 elap:               0.0
 (Enter /opt/g16/l123.exe)
 IRC-IRC-IRC-IRC-IRC-IRC-IRC-IRC-IRC-IRC-IRC-IRC-IRC-IRC-IRC-IRC-IRC-IRC
 Reaction path inflection point has been passed.
   Previous lowest Hessian eigenvalue=   -0.0000414484
   Current lowest Hessian eigenvalue =    0.0000008580
 Pt136 Step number   1 out of a maximum of  10
 Using modified Bulirsch-Stoer corrector integration.
   Using distance weighted interpolants to fit PES.
 PreDWI: IReCr0= 2 IReCr1= 1 IReCr2= 1 IReCr3= 1
 Modified Bulirsch-Stoer Extrapolation Cycles:
    EPS =    0.000010000000000
    Cycle     1 NS=    48
      PEZero:  N= 2 I= 1 D=  2.48D-04 Err=  1.04D-06
    Cycle     2 NS=    64 Truncation Error =  0.000001042
 BS completed in    2 cycles and     112 integration steps.
 Maximum DWI energy   std dev =  0.000000030 at pt    32
 Maximum DWI gradient std dev =  0.000226757 at pt    47
 SUMMARY OF CORRECTOR INTEGRATION:
   Predictor End Point Energy =  -751.148429
   Old End Point Energy       =  -751.148429
   Corrected End Point Energy =  -751.148429
   Predictor End-Start Dist.  =     0.047628
   Old End-Start Dist.        =     0.047628
   New End-Start Dist.        =     0.047628
   New End-Old End Dist.      =     0.000014
 CORRECTOR INTEGRATION CONVERGENCE:
   Recorrection delta-x convergence threshold:    0.010000
   Delta-x Convergence Met
 Point Number:  36          Path Number:   2
                    CURRENT STRUCTURE
                Cartesian Coordinates (Ang):                
 ---------------------------------------------------------------------
 Center     Atomic                     Coordinates (Angstroms)
 Number     Number                        X           Y           Z
 ---------------------------------------------------------------------
      1          1                    0.213361    1.124454    1.597493
      2          1                    1.533196    1.123933   -0.497247
      3          1                   -0.925384    0.476260   -0.582649
      4          1                   -0.299955    2.642021   -0.189505
      5         14                    0.214649    1.278588    0.135077
      6         17                   -0.186803   -1.177899   -0.117566
 ---------------------------------------------------------------------
   CHANGE IN THE REACTION COORDINATE =    0.04763
   NET REACTION COORDINATE UP TO THIS POINT =    1.71455
  # OF POINTS ALONG THE PATH = 136
  # OF STEPS =   1

 Calculating another point on the path.
 Point Number 37 in REVERSE path direction.
 Using LQA Reaction Path Following.
   LQA: T_Est iteration completed in    3 iterations.
 PES minimum detected within a second-order step.
 Calculation of REVERSE path complete.
 Reaction path calculation complete.
 
 Energies reported relative to the TS energy of        -751.145605
 --------------------------------------------------------------------------
    Summary of reaction path following
 --------------------------------------------------------------------------
                        Energy    RxCoord
   1                   -0.00282  -1.71455
   2                   -0.00272  -1.66692
   3                   -0.00262  -1.61929
   4                   -0.00251  -1.57166
   5                   -0.00241  -1.52404
   6                   -0.00231  -1.47641
   7                   -0.00221  -1.42878
   8                   -0.00210  -1.38115
   9                   -0.00200  -1.33352
  10                   -0.00190  -1.28590
  11                   -0.00180  -1.23827
  12                   -0.00170  -1.19064
  13                   -0.00161  -1.14301
  14                   -0.00151  -1.09539
  15                   -0.00141  -1.04776
  16                   -0.00132  -1.00013
  17                   -0.00123  -0.95250
  18                   -0.00114  -0.90488
  19                   -0.00105  -0.85725
  20                   -0.00096  -0.80962
  21                   -0.00087  -0.76199
  22                   -0.00079  -0.71437
  23                   -0.00071  -0.66674
  24                   -0.00063  -0.61911
  25                   -0.00055  -0.57149
  26                   -0.00048  -0.52386
  27                   -0.00041  -0.47623
  28                   -0.00034  -0.42861
  29                   -0.00028  -0.38098
  30                   -0.00022  -0.33336
  31                   -0.00017  -0.28573
  32                   -0.00012  -0.23811
  33                   -0.00008  -0.19049
  34                   -0.00005  -0.14286
  35                   -0.00002  -0.09524
  36                   -0.00001  -0.04762
  37                    0.00000   0.00000
  38                   -0.00001   0.04760
  39                   -0.00002   0.09522
  40                   -0.00005   0.14284
  41                   -0.00010   0.19046
  42                   -0.00015   0.23809
  43                   -0.00023   0.28571
  44                   -0.00032   0.33333
  45                   -0.00042   0.38096
  46                   -0.00054   0.42858
  47                   -0.00068   0.47621
  48                   -0.00084   0.52383
  49                   -0.00101   0.57145
  50                   -0.00120   0.61908
  51                   -0.00141   0.66670
  52                   -0.00164   0.71432
  53                   -0.00188   0.76195
  54                   -0.00214   0.80957
  55                   -0.00242   0.85720
  56                   -0.00271   0.90482
  57                   -0.00302   0.95244
  58                   -0.00334   1.00007
  59                   -0.00367   1.04769
  60                   -0.00401   1.09532
  61                   -0.00436   1.14294
  62                   -0.00472   1.19057
  63                   -0.00508   1.23819
  64                   -0.00545   1.28582
  65                   -0.00583   1.33344
  66                   -0.00620   1.38106
  67                   -0.00658   1.42869
  68                   -0.00696   1.47631
  69                   -0.00734   1.52394
  70                   -0.00772   1.57156
  71                   -0.00810   1.61919
  72                   -0.00848   1.66681
  73                   -0.00885   1.71443
  74                   -0.00922   1.76206
  75                   -0.00960   1.80968
  76                   -0.00996   1.85731
  77                   -0.01033   1.90493
  78                   -0.01070   1.95256
  79                   -0.01106   2.00018
  80                   -0.01142   2.04781
  81                   -0.01178   2.09543
  82                   -0.01214   2.14306
  83                   -0.01250   2.19068
  84                   -0.01286   2.23831
  85                   -0.01322   2.28593
  86                   -0.01358   2.33356
  87                   -0.01394   2.38118
  88                   -0.01430   2.42881
  89                   -0.01466   2.47643
  90                   -0.01502   2.52406
  91                   -0.01538   2.57169
  92                   -0.01574   2.61931
  93                   -0.01611   2.66694
  94                   -0.01647   2.71456
  95                   -0.01684   2.76219
  96                   -0.01720   2.80982
  97                   -0.01756   2.85744
  98                   -0.01792   2.90507
  99                   -0.01828   2.95270
 100                   -0.01863   3.00032
 101                   -0.01898   3.04795
 102                   -0.01932   3.09558
 103                   -0.01966   3.14321
 104                   -0.01999   3.19083
 105                   -0.02031   3.23846
 106                   -0.02062   3.28609
 107                   -0.02093   3.33372
 108                   -0.02122   3.38134
 109                   -0.02150   3.42897
 110                   -0.02177   3.47660
 111                   -0.02204   3.52423
 112                   -0.02229   3.57186
 113                   -0.02253   3.61948
 114                   -0.02276   3.66711
 115                   -0.02298   3.71474
 116                   -0.02319   3.76237
 117                   -0.02339   3.80999
 118                   -0.02358   3.85762
 119                   -0.02376   3.90525
 120                   -0.02394   3.95288
 121                   -0.02410   4.00051
 122                   -0.02426   4.04814
 123                   -0.02440   4.09576
 124                   -0.02454   4.14339
 125                   -0.02468   4.19102
 126                   -0.02480   4.23865
 127                   -0.02492   4.28628
 128                   -0.02503   4.33391
 129                   -0.02514   4.38153
 130                   -0.02524   4.42916
 131                   -0.02533   4.47679
 132                   -0.02542   4.52442
 133                   -0.02550   4.57205
 134                   -0.02558   4.61968
 135                   -0.02565   4.66731
 136                   -0.02571   4.71493
 137                   -0.02577   4.76256
 --------------------------------------------------------------------------
 
 Total number of points:                  136
 Total number of gradient calculations:   137
 Total number of Hessian calculations:    137
 IRC-IRC-IRC-IRC-IRC-IRC-IRC-IRC-IRC-IRC-IRC-IRC-IRC-IRC-IRC-IRC-IRC-IRC
 Leave Link  123 at Sun Apr 14 22:20:56 2024, MaxMem=   104857600 cpu:               0.0 elap:               0.0
 (Enter /opt/g16/l202.exe)
                          Input orientation:                          
 ---------------------------------------------------------------------
 Center     Atomic      Atomic             Coordinates (Angstroms)
 Number     Number       Type             X           Y           Z
 ---------------------------------------------------------------------
      1          1           0        0.213361    1.124451    1.597493
      2          1           0        1.533196    1.123930   -0.497248
      3          1           0       -0.925382    0.476256   -0.582647
      4          1           0       -0.299953    2.642022   -0.189504
      5         14           0        0.214649    1.278588    0.135077
      6         17           0       -0.186803   -1.177898   -0.117566
 ---------------------------------------------------------------------
                    Distance matrix (angstroms):
                    1          2          3          4          5
     1  H    0.000000
     2  H    2.475865   0.000000
     3  H    2.543600   2.543891   0.000000
     4  H    2.399973   2.399947   2.288289   0.000000
     5  Si   1.470518   1.470483   1.567971   1.493024   0.000000
     6  Cl   2.898685   2.898442   1.870301   3.822273   2.501863
                    6
     6  Cl   0.000000
 Symmetry turned off by external request.
 Stoichiometry    ClH4Si(2)
 Framework group  C1[X(ClH4Si)]
 Deg. of freedom    12
 Full point group                 C1      NOp   1
 Rotational constants (GHZ):          78.0713065           4.5631841           4.5510443
 Leave Link  202 at Sun Apr 14 22:20:56 2024, MaxMem=   104857600 cpu:               0.0 elap:               0.0
 (Enter /opt/g16/l601.exe)
 Leave Link  601 at Sun Apr 14 22:20:56 2024, MaxMem=   104857600 cpu:               0.0 elap:               0.0
 (Enter /opt/g16/l9999.exe)

 This type of calculation cannot be archived.


 THE REAL VOYAGE OF DISCOVERY CONSISTS NOT IN SEEKING NEW LANDSCAPES 
 BUT IN HAVING NEW EYES.
                                                    -- MARCEL PROUST
 Job cpu time:       0 days  0 hours  0 minutes 25.7 seconds.
 Elapsed time:       0 days  0 hours  2 minutes  8.9 seconds.
 File lengths (MBytes):  RWF=      6 Int=      0 D2E=      0 Chk=      2 Scr=      1
 Normal termination of Gaussian 16 at Sun Apr 14 22:20:56 2024.
