 Entering Gaussian System, Link 0=g16
 Initial command:
 /opt/g16/l1.exe "/home/jh-li/scratch/g16/Gau-273288.inp" -scrdir="/home/jh-li/scratch/g16/"
 Entering Link 1 = /opt/g16/l1.exe PID=    273291.
  
 Copyright (c) 1988-2019, Gaussian, Inc.  All Rights Reserved.
  
 This is part of the Gaussian(R) 16 program.  It is based on
 the Gaussian(R) 09 system (copyright 2009, Gaussian, Inc.),
 the Gaussian(R) 03 system (copyright 2003, Gaussian, Inc.),
 the Gaussian(R) 98 system (copyright 1998, Gaussian, Inc.),
 the Gaussian(R) 94 system (copyright 1995, Gaussian, Inc.),
 the Gaussian 92(TM) system (copyright 1992, Gaussian, Inc.),
 the Gaussian 90(TM) system (copyright 1990, Gaussian, Inc.),
 the Gaussian 88(TM) system (copyright 1988, Gaussian, Inc.),
 the Gaussian 86(TM) system (copyright 1986, Carnegie Mellon
 University), and the Gaussian 82(TM) system (copyright 1983,
 Carnegie Mellon University). Gaussian is a federally registered
 trademark of Gaussian, Inc.
  
 This software contains proprietary and confidential information,
 including trade secrets, belonging to Gaussian, Inc.
  
 This software is provided under written license and may be
 used, copied, transmitted, or stored only in accord with that
 written license.
  
 The following legend is applicable only to US Government
 contracts under FAR:
  
                    RESTRICTED RIGHTS LEGEND
  
 Use, reproduction and disclosure by the US Government is
 subject to restrictions as set forth in subparagraphs (a)
 and (c) of the Commercial Computer Software - Restricted
 Rights clause in FAR 52.227-19.
  
 Gaussian, Inc.
 340 Quinnipiac St., Bldg. 40, Wallingford CT 06492
  
  
 ---------------------------------------------------------------
 Warning -- This program may not be used in any manner that
 competes with the business of Gaussian, Inc. or will provide
 assistance to any competitor of Gaussian, Inc.  The licensee
 of this program is prohibited from giving any competitor of
 Gaussian, Inc. access to this program.  By using this program,
 the user acknowledges that Gaussian, Inc. is engaged in the
 business of creating and licensing software in the field of
 computational chemistry and represents and warrants to the
 licensee that it is not a competitor of Gaussian, Inc. and that
 it will not use this program in any manner prohibited above.
 ---------------------------------------------------------------
  

 Cite this work as:
 Gaussian 16, Revision C.01,
 M. J. Frisch, G. W. Trucks, H. B. Schlegel, G. E. Scuseria, 
 M. A. Robb, J. R. Cheeseman, G. Scalmani, V. Barone, 
 G. A. Petersson, H. Nakatsuji, X. Li, M. Caricato, A. V. Marenich, 
 J. Bloino, B. G. Janesko, R. Gomperts, B. Mennucci, H. P. Hratchian, 
 J. V. Ortiz, A. F. Izmaylov, J. L. Sonnenberg, D. Williams-Young, 
 F. Ding, F. Lipparini, F. Egidi, J. Goings, B. Peng, A. Petrone, 
 T. Henderson, D. Ranasinghe, V. G. Zakrzewski, J. Gao, N. Rega, 
 G. Zheng, W. Liang, M. Hada, M. Ehara, K. Toyota, R. Fukuda, 
 J. Hasegawa, M. Ishida, T. Nakajima, Y. Honda, O. Kitao, H. Nakai, 
 T. Vreven, K. Throssell, J. A. Montgomery, Jr., J. E. Peralta, 
 F. Ogliaro, M. J. Bearpark, J. J. Heyd, E. N. Brothers, K. N. Kudin, 
 V. N. Staroverov, T. A. Keith, R. Kobayashi, J. Normand, 
 K. Raghavachari, A. P. Rendell, J. C. Burant, S. S. Iyengar, 
 J. Tomasi, M. Cossi, J. M. Millam, M. Klene, C. Adamo, R. Cammi, 
 J. W. Ochterski, R. L. Martin, K. Morokuma, O. Farkas, 
 J. B. Foresman, and D. J. Fox, Gaussian, Inc., Wallingford CT, 2019.
 
 ******************************************
 Gaussian 16:  ES64L-G16RevC.01  3-Jul-2019
                14-Apr-2024 
 ******************************************
 %nproc=1
 Will use up to    1 processors via shared memory.
 %oldchk=ts2-opt-freq.chk
 Copying data from "ts2-opt-freq.chk" to current chk file "/home/jh-li/scratch/g16/Gau-273291.chk"
 IOpt=  2 FromEx=T IUOpen= 4 IOptOp= 5 NList=   0 IFRang= 0 IUIn= 4 IUOut= 2.
 ----------------------------------------------------------------------
 #p external="python3 -u ../pes/h4sicl_pes.py" irc=(calcall,stepsize=3,
 maxpoint=100) geom=allcheck
 ----------------------------------------------------------------------
 1/6=10,10=4,18=10,26=1,29=7,38=1,39=3,42=100,44=3,71=1,172=1/1,23;
 2/12=2,29=1,40=1/2;
 3/11=9,14=-4,25=1,30=1,41=9900000,43=2,71=2,140=1/1;
 4/20=17,22=1002,24=3,113=1,114=1/2;
 6/7=2,8=2,9=2,10=2,18=1/1;
 7/25=1,44=-1/16;
 1/6=10,10=4,18=10,26=1,39=3,42=100,44=3,71=1/23(2);
 2/29=1/2;
 99/5=20/99;
 2/29=1/2;
 3/11=9,14=-2,25=1,30=1,41=9900000,43=2,71=2,140=1/1;
 4/16=2,20=17,22=1002,24=3,113=1,114=1/2;
 7/25=1,44=-1/16;
 1/6=10,10=4,18=10,26=1,39=3,42=100,44=3,71=1/23(-4);
 2/29=1/2;
 6/7=2,8=2,9=2,10=2,18=1/1;
 99/5=20/99;
 Leave Link    1 at Sun Apr 14 22:46:59 2024, MaxMem=   104857600 cpu:               0.0 elap:               0.0
 (Enter /opt/g16/l101.exe)
 Structure from the checkpoint file:  "/home/jh-li/scratch/g16/Gau-273291.chk"
 -------------------
 Title Card Required
 -------------------
 Charge =  0 Multiplicity = 2
 Redundant internal coordinates found in file.  (old form).
 H,0,-0.0049420771,0.0043019183,1.4788160286
 H,0,1.3618128968,0.004301916,-0.5765300552
 H,0,-0.6870862807,-1.2258740747,-0.4568956031
 H,0,-0.2132334224,1.5944278568,-0.1417950225
 Si,0,-0.0023793979,-0.0043240603,-0.0015822414
 Cl,0,-1.7471500651,1.2382377844,-1.1618121459
 Recover connectivity data from disk.
 ITRead=  0  0  0  0  0  0
 MicOpt= -1 -1 -1 -1 -1 -1
 NAtoms=      6 NQM=        6 NQMF=       0 NMMI=      0 NMMIF=      0
                NMic=       0 NMicF=      0.
                    Isotopes and Nuclear Properties:
 (Nuclear quadrupole moments (NQMom) in fm**2, nuclear magnetic moments (NMagM)
  in nuclear magnetons)

  Atom         1           2           3           4           5           6
 IAtWgt=           1           1           1           1          28          35
 AtmWgt=   1.0078250   1.0078250   1.0078250   1.0078250  27.9769284  34.9688527
 NucSpn=           1           1           1           1           0           3
 AtZEff=   1.0000000   1.0000000   1.0000000   1.0000000  12.2500000  14.2400000
 NQMom=    0.0000000   0.0000000   0.0000000   0.0000000   0.0000000  -8.1650000
 NMagM=    2.7928460   2.7928460   2.7928460   2.7928460   0.0000000   0.8218740
 AtZNuc=   1.0000000   1.0000000   1.0000000   1.0000000  14.0000000  17.0000000
 Leave Link  101 at Sun Apr 14 22:46:59 2024, MaxMem=   104857600 cpu:               0.2 elap:               0.2
 (Enter /opt/g16/l123.exe)
 IRC-IRC-IRC-IRC-IRC-IRC-IRC-IRC-IRC-IRC-IRC-IRC-IRC-IRC-IRC-IRC-IRC-IRC
 ------------------------------------------------------------------------
 INPUT DATA FOR L123
 ------------------------------------------------------------------------
 GENERAL PARAMETERS:
 Follow reaction path in both directions.
 Maximum points per path      = 100
 Step size                    =   0.030 bohr
 Integration scheme           = HPC                                 
    Redo corrector integration= Yes                                 
    DWI Weight Power          =  2
    DWI will use Hessian update vectors when possible.
    Max correction cycles     =  10
 Initial Hessian              = CalcFC
 Hessian evaluation           = Analytic at all predictor steps
                              = Update at all corrector steps
 Hessian updating method      = Bofill                              
 ------------------------------------------------------------------------
 IRC-IRC-IRC-IRC-IRC-IRC-IRC-IRC-IRC-IRC-IRC-IRC-IRC-IRC-IRC-IRC-IRC-IRC
 Leave Link  123 at Sun Apr 14 22:46:59 2024, MaxMem=   104857600 cpu:               0.0 elap:               0.0
 (Enter /opt/g16/l202.exe)
                          Input orientation:                          
 ---------------------------------------------------------------------
 Center     Atomic      Atomic             Coordinates (Angstroms)
 Number     Number       Type             X           Y           Z
 ---------------------------------------------------------------------
      1          1           0       -0.004942    0.004302    1.478816
      2          1           0        1.361813    0.004302   -0.576530
      3          1           0       -0.687086   -1.225874   -0.456896
      4          1           0       -0.213233    1.594428   -0.141795
      5         14           0       -0.002379   -0.004324   -0.001582
      6         17           0       -1.747150    1.238238   -1.161812
 ---------------------------------------------------------------------
                    Distance matrix (angstroms):
                    1          2          3          4          5
     1  H    0.000000
     2  H    2.468292   0.000000
     3  H    2.392830   2.392830   0.000000
     4  H    2.279971   2.279971   2.877139   0.000000
     5  Si   1.480426   1.480426   1.472521   1.618681   0.000000
     6  Cl   3.395704   3.395704   2.773534   1.876221   2.436046
                    6
     6  Cl   0.000000
 Symmetry turned off by external request.
 Stoichiometry    ClH4Si(2)
 Framework group  CS[SG(ClH2Si),X(H2)]
 Deg. of freedom     8
 Full point group                 CS      NOp   2
 Rotational constants (GHZ):          70.4898009           4.8118954           4.7651907
 Leave Link  202 at Sun Apr 14 22:46:59 2024, MaxMem=   104857600 cpu:               0.0 elap:               0.0
 (Enter /opt/g16/l301.exe)
 Standard basis: STO-3G (5D, 7F)
 Ernie: Thresh=  0.10000D-02 Tol=  0.10000D-05 Strict=F.
    22 basis functions,    66 primitive gaussians,    22 cartesian basis functions
    18 alpha electrons       17 beta electrons
       nuclear repulsion energy        85.9584070147 Hartrees.
 IExCor=    0 DFT=F Ex=HF Corr=None ExCW=0 ScaHFX=  1.000000
 ScaDFX=  1.000000  1.000000  1.000000  1.000000 ScalE2=  1.000000  1.000000
 IRadAn=      5 IRanWt=     -1 IRanGd=            0 ICorTp=0 IEmpDi=  4
 NAtoms=    6 NActive=    6 NUniq=    6 SFac= 1.00D+00 NAtFMM=   60 NAOKFM=F Big=F
 Integral buffers will be    131072 words long.
 Raffenetti 2 integral format.
 Two-electron integral symmetry is turned off.
 Leave Link  301 at Sun Apr 14 22:46:59 2024, MaxMem=   104857600 cpu:               0.0 elap:               0.0
 (Enter /opt/g16/l402.exe)
 External calculation of energy, first and second derivatives.
 Running external command "python3 -u ../pes/h4sicl_pes.py R"
         input file       "/home/jh-li/scratch/g16/Gau-273291.EIn"
         output file      "/home/jh-li/scratch/g16/Gau-273291.EOu"
         message file     "/home/jh-li/scratch/g16/Gau-273291.EMs"
         fchk file        "/home/jh-li/scratch/g16/Gau-273291.EFC"
         mat. el file     "/home/jh-li/scratch/g16/Gau-273291.EUF"
 initialization done
 Recovered energy= -751.143395850     dipole=      0.000000000000      0.000000000000      0.000000000000
 NRF= 0 NRA=   0 NVA=   0 HaveQM=F NVQ=       0
 Convergence limit is  0.750E-04 MaxStp= 10000 StMxLn= 3.00D-04 StpMin= 1.00D-06.
 Convergence criteria             0.00011250 0.00007500 0.00045000 0.00030000
  Step  NS  ND Rises OKQ   Scale  Max. Force  RMS Force Max. Disp.  RMS Disp.     Energy   Flag
     1   0   0   F    T  1.00D+00 0.00000000 0.00000000 0.00000000 0.00000000 -751.1433959 ====
 Running external command "python3 -u ../pes/h4sicl_pes.py R"
         input file       "/home/jh-li/scratch/g16/Gau-273291.EIn"
         output file      "/home/jh-li/scratch/g16/Gau-273291.EOu"
         message file     "/home/jh-li/scratch/g16/Gau-273291.EMs"
         fchk file        "/home/jh-li/scratch/g16/Gau-273291.EFC"
         mat. el file     "/home/jh-li/scratch/g16/Gau-273291.EUF"
 initialization done
 Recovered energy= -751.143395850     dipole=      0.000000000000      0.000000000000      0.000000000000
 Energy=    -751.143396     NIter=   0.
 Dipole moment=       0.000000       0.000000       0.000000
 Leave Link  402 at Sun Apr 14 22:47:00 2024, MaxMem=   104857600 cpu:               0.0 elap:               0.8
 (Enter /opt/g16/l601.exe)
 Leave Link  601 at Sun Apr 14 22:47:00 2024, MaxMem=   104857600 cpu:               0.0 elap:               0.0
 (Enter /opt/g16/l716.exe)
 Dipole        = 0.00000000D+00 0.00000000D+00 0.00000000D+00
 -------------------------------------------------------------------
 Center     Atomic                   Forces (Hartrees/Bohr)
 Number     Number              X              Y              Z
 -------------------------------------------------------------------
      1        1           0.000008231   -0.000005953    0.000016694
      2        1           0.000013702   -0.000005953    0.000012663
      3        1           0.000006810    0.000013087    0.000005685
      4        1           0.000021491    0.000024636    0.000013554
      5       14          -0.000025701   -0.000006342   -0.000034044
      6       17          -0.000029578   -0.000010271   -0.000017266
 -------------------------------------------------------------------
 Cartesian Forces:  Max     0.000034044 RMS     0.000017330
 Force constants in Cartesian coordinates: 
                1             2             3             4             5 
      1  0.175338D-01
      2  0.194723D-02  0.210702D-01
      3 -0.624676D-03  0.162060D-02  0.184575D+00
      4  0.295931D-02  0.701544D-03 -0.233029D-03  0.159110D+00
      5 -0.920465D-03  0.161335D-02  0.114668D-02  0.224779D-02  0.210702D-01
      6  0.109620D-01 -0.129245D-02 -0.154087D-02 -0.599996D-01  0.116906D-02
      7  0.317827D-02 -0.488752D-03 -0.439721D-03 -0.611279D-02 -0.105213D-01
      8 -0.159691D-02  0.167773D-02 -0.136907D-02 -0.188021D-02  0.167773D-02
      9 -0.707935D-02 -0.112041D-01 -0.459339D-02  0.345698D-02  0.388264D-02
     10  0.150654D-02 -0.162129D-02  0.142864D-02 -0.337406D-02  0.682146D-02
     11  0.307046D-02 -0.751144D-02  0.488231D-02  0.569012D-02 -0.751144D-02
     12 -0.232730D-02  0.807753D-02 -0.385574D-02  0.347513D-02 -0.461890D-02
     13 -0.271182D-01  0.625534D-03  0.601948D-03 -0.153254D+00  0.286453D-02
     14 -0.139381D-02 -0.202931D-01 -0.602783D-02 -0.609849D-02 -0.202931D-01
     15 -0.909656D-03  0.284360D-02 -0.175350D+00  0.535011D-01 -0.523164D-03
     16  0.194235D-02 -0.116506D-02 -0.732622D-03  0.669347D-03 -0.493298D-03
     17 -0.110470D-02  0.344193D-02 -0.249205D-03 -0.656841D-03  0.344193D-02
     18 -0.206371D-04 -0.464283D-04  0.761518D-03 -0.198642D-03 -0.105695D-02
                6             7             8             9            10 
      6  0.429371D-01
      7 -0.318240D-02  0.612271D-01
      8 -0.942904D-03  0.653091D-01  0.134041D+00
      9  0.469750D-02  0.273074D-01  0.434252D-01  0.383251D-01
     10 -0.279969D-03  0.630690D-04  0.945596D-03  0.674722D-03  0.245090D-01
     11  0.942726D-03 -0.255721D-02  0.231051D-02 -0.170039D-02 -0.123581D-01
     12  0.102507D-02  0.674857D-03  0.628696D-03 -0.502663D-03  0.106385D-01
     13  0.519892D-01 -0.549282D-01 -0.700790D-01 -0.200695D-01  0.484946D-02
     14  0.104676D-02 -0.634729D-01 -0.127815D+00 -0.422041D-01  0.254370D-02
     15 -0.491521D-01 -0.200693D-01 -0.465978D-01 -0.380984D-01  0.804145D-02
     16  0.513712D-03 -0.342596D-02  0.730052D-02 -0.429141D-02 -0.275522D-01
     17 -0.922866D-03  0.117241D-01 -0.118964D-01  0.779615D-02  0.367153D-02
     18  0.203450D-02 -0.429165D-02  0.485451D-02  0.173861D-03 -0.205008D-01
               11            12            13            14            15 
     11  0.747992D-01
     12 -0.821812D-02  0.155852D-01
     13  0.295453D-01  0.804016D-02  0.237500D+00
     14 -0.724506D-01  0.169155D-02  0.478809D-01  0.259152D+00
     15  0.196475D-01 -0.189848D-02 -0.419930D-01  0.318367D-01  0.272745D+00
     16 -0.233941D-01 -0.205019D-01 -0.704491D-02  0.205448D-01  0.142990D-02
     17  0.103502D-01  0.244114D-02 -0.108307D-01 -0.182802D-01 -0.720251D-02
     18 -0.155559D-01 -0.103513D-01  0.143079D-02  0.136621D-01 -0.824371D-02
               16            17            18 
     16  0.354042D-01
     17 -0.280104D-02  0.129442D-01
     18  0.235786D-01 -0.186274D-02  0.156211D-01
 Leave Link  716 at Sun Apr 14 22:47:00 2024, MaxMem=   104857600 cpu:               0.0 elap:               0.0
 (Enter /opt/g16/l123.exe)
 IRC-IRC-IRC-IRC-IRC-IRC-IRC-IRC-IRC-IRC-IRC-IRC-IRC-IRC-IRC-IRC-IRC-IRC
          ******** Start new reaction path calculation ********
 Current Structure is TS -> form Hessian eigenvectors.
                            Diagonalizing Hessian.
 WARNING: TS HAS MORE THAN 1 IMAGINARY FREQUENCY!
 Supplied step size of   0.0300 bohr.
    Integration on MW PES will use step size of   0.0656 sqrt(amu)*bohr.
 Point Number:   0          Path Number:   1
 Calculating another point on the path.
 Point Number  1 in FORWARD path direction.
 Using LQA Reaction Path Following.
 IRC-IRC-IRC-IRC-IRC-IRC-IRC-IRC-IRC-IRC-IRC-IRC-IRC-IRC-IRC-IRC-IRC-IRC
 Leave Link  123 at Sun Apr 14 22:47:00 2024, MaxMem=   104857600 cpu:               0.0 elap:               0.0
 (Enter /opt/g16/l202.exe)
                          Input orientation:                          
 ---------------------------------------------------------------------
 Center     Atomic      Atomic             Coordinates (Angstroms)
 Number     Number       Type             X           Y           Z
 ---------------------------------------------------------------------
      1          1           0        0.897302   -0.641322    2.079269
      2          1           0        2.264504   -0.641323    0.023257
      3          1           0        0.221328   -1.879206    0.147175
      4          1           0        0.699222    0.951998    0.464961
      5         14           0        0.900664   -0.652875    0.598920
      6         17           0       -0.838235    0.586024   -0.557406
 ---------------------------------------------------------------------
                    Distance matrix (angstroms):
                    1          2          3          4          5
     1  H    0.000000
     2  H    2.469094   0.000000
     3  H    2.392129   2.392128   0.000000
     4  H    2.276816   2.276814   2.888787   0.000000
     5  Si   1.480398   1.480398   1.472908   1.623004   0.000000
     6  Cl   3.386816   3.386818   2.774252   1.882271   2.428113
                    6
     6  Cl   0.000000
 Symmetry turned off by external request.
 Stoichiometry    ClH4Si(2)
 Framework group  C1[X(ClH4Si)]
 Deg. of freedom    12
 Full point group                 C1      NOp   1
 Rotational constants (GHZ):          70.1428641           4.8413785           4.7926717
 Leave Link  202 at Sun Apr 14 22:47:00 2024, MaxMem=   104857600 cpu:               0.0 elap:               0.0
 (Enter /opt/g16/l301.exe)
 Standard basis: STO-3G (5D, 7F)
 Ernie: Thresh=  0.10000D-02 Tol=  0.10000D-05 Strict=F.
    22 basis functions,    66 primitive gaussians,    22 cartesian basis functions
    18 alpha electrons       17 beta electrons
       nuclear repulsion energy        86.1115969403 Hartrees.
 IExCor=    0 DFT=F Ex=HF Corr=None ExCW=0 ScaHFX=  1.000000
 ScaDFX=  1.000000  1.000000  1.000000  1.000000 ScalE2=  1.000000  1.000000
 IRadAn=      5 IRanWt=     -1 IRanGd=            0 ICorTp=0 IEmpDi=  4
 NAtoms=    6 NActive=    6 NUniq=    6 SFac= 1.00D+00 NAtFMM=   60 NAOKFM=F Big=F
 Integral buffers will be    131072 words long.
 Raffenetti 2 integral format.
 Two-electron integral symmetry is turned off.
 Leave Link  301 at Sun Apr 14 22:47:00 2024, MaxMem=   104857600 cpu:               0.0 elap:               0.0
 (Enter /opt/g16/l402.exe)
 External calculation of energy, first and second derivatives.
 Running external command "python3 -u ../pes/h4sicl_pes.py R"
         input file       "/home/jh-li/scratch/g16/Gau-273291.EIn"
         output file      "/home/jh-li/scratch/g16/Gau-273291.EOu"
         message file     "/home/jh-li/scratch/g16/Gau-273291.EMs"
         fchk file        "/home/jh-li/scratch/g16/Gau-273291.EFC"
         mat. el file     "/home/jh-li/scratch/g16/Gau-273291.EUF"
 initialization done
 Recovered energy= -751.143402992     dipole=      0.000000000000      0.000000000000      0.000000000000
 NRF= 0 NRA=   0 NVA=   0 HaveQM=F NVQ=       0
 Convergence limit is  0.750E-04 MaxStp= 10000 StMxLn= 3.00D-04 StpMin= 1.00D-06.
 Convergence criteria             0.00011250 0.00007500 0.00045000 0.00030000
  Step  NS  ND Rises OKQ   Scale  Max. Force  RMS Force Max. Disp.  RMS Disp.     Energy   Flag
     1   0   0   F    T  1.00D+00 0.00000000 0.00000000 0.00000000 0.00000000 -751.1434030 ====
 Running external command "python3 -u ../pes/h4sicl_pes.py R"
         input file       "/home/jh-li/scratch/g16/Gau-273291.EIn"
         output file      "/home/jh-li/scratch/g16/Gau-273291.EOu"
         message file     "/home/jh-li/scratch/g16/Gau-273291.EMs"
         fchk file        "/home/jh-li/scratch/g16/Gau-273291.EFC"
         mat. el file     "/home/jh-li/scratch/g16/Gau-273291.EUF"
 initialization done
 Recovered energy= -751.143402992     dipole=      0.000000000000      0.000000000000      0.000000000000
 Energy=    -751.143403     NIter=   0.
 Dipole moment=       0.000000       0.000000       0.000000
 Leave Link  402 at Sun Apr 14 22:47:01 2024, MaxMem=   104857600 cpu:               0.0 elap:               0.8
 (Enter /opt/g16/l716.exe)
 Dipole        = 0.00000000D+00 0.00000000D+00 0.00000000D+00
 -------------------------------------------------------------------
 Center     Atomic                   Forces (Hartrees/Bohr)
 Number     Number              X              Y              Z
 -------------------------------------------------------------------
      1        1          -0.000018184    0.000025605    0.000001327
      2        1          -0.000010694    0.000025603   -0.000005708
      3        1           0.000023888   -0.000000856    0.000017049
      4        1           0.000063306    0.000083072    0.000041351
      5       14          -0.000589691    0.000285356   -0.000409207
      6       17           0.000526453   -0.000409292    0.000352494
 -------------------------------------------------------------------
 Cartesian Forces:  Max     0.000589691 RMS     0.000256126
 Force constants in Cartesian coordinates: 
                1             2             3             4             5 
      1  0.175243D-01
      2  0.196564D-02  0.211108D-01
      3 -0.733241D-03  0.198321D-02  0.184468D+00
      4  0.298410D-02  0.713362D-03 -0.255760D-03  0.158940D+00
      5 -0.902524D-03  0.160590D-02  0.115197D-02  0.258914D-02  0.211109D-01
      6  0.109251D-01 -0.127795D-02 -0.149100D-02 -0.600404D-01  0.104593D-02
      7  0.319511D-02 -0.480690D-03 -0.451479D-03 -0.610133D-02 -0.105591D-01
      8 -0.164076D-02  0.162071D-02 -0.140223D-02 -0.192778D-02  0.162070D-02
      9 -0.702990D-02 -0.112484D-01 -0.459863D-02  0.344744D-02  0.390719D-02
     10  0.150287D-02 -0.168502D-02  0.138024D-02 -0.338856D-02  0.667588D-02
     11  0.307373D-02 -0.769710D-02  0.500953D-02  0.580877D-02 -0.769715D-02
     12 -0.223762D-02  0.794642D-02 -0.388945D-02  0.343125D-02 -0.462692D-02
     13 -0.271869D-01  0.645146D-03  0.743524D-03 -0.153133D+00  0.263949D-02
     14 -0.137749D-02 -0.201374D-01 -0.650701D-02 -0.653396D-02 -0.201374D-01
     15 -0.845397D-03  0.259109D-02 -0.175283D+00  0.535630D-01 -0.407600D-03
     16  0.198257D-02 -0.115930D-02 -0.682780D-03  0.696980D-03 -0.444290D-03
     17 -0.111674D-02  0.349548D-02 -0.231743D-03 -0.645387D-03  0.349551D-02
     18 -0.784213D-04  0.432558D-05  0.790268D-03 -0.143560D-03 -0.107122D-02
                6             7             8             9            10 
      6  0.429900D-01
      7 -0.313074D-02  0.605025D-01
      8 -0.970539D-03  0.648420D-01  0.134612D+00
      9  0.469761D-02  0.268114D-01  0.431149D-01  0.380168D-01
     10 -0.185770D-03 -0.123234D-04  0.102171D-02  0.622921D-03  0.240487D-01
     11  0.896571D-03 -0.260240D-02  0.232297D-02 -0.173047D-02 -0.119101D-01
     12  0.100225D-02  0.623073D-03  0.679317D-03 -0.534571D-03  0.104178D-01
     13  0.519737D-01 -0.542263D-01 -0.696150D-01 -0.195938D-01  0.538418D-02
     14  0.124703D-02 -0.629973D-01 -0.128192D+00 -0.418882D-01  0.227863D-02
     15 -0.492736D-01 -0.195938D-01 -0.462895D-01 -0.377957D-01  0.823858D-02
     16  0.461259D-03 -0.335630D-02  0.731889D-02 -0.425917D-02 -0.275324D-01
     17 -0.940773D-03  0.117907D-01 -0.119898D-01  0.784039D-02  0.362315D-02
     18  0.207585D-02 -0.425938D-02  0.486670D-02  0.216492D-03 -0.204711D-01
               11            12            13            14            15 
     11  0.725985D-01
     12 -0.792034D-02  0.153096D-01
     13  0.290306D-01  0.823749D-02  0.236794D+00
     14 -0.699937D-01  0.151529D-02  0.480799D-01  0.257337D+00
     15  0.193054D-01 -0.152943D-02 -0.426426D-01  0.319693D-01  0.272585D+00
     16 -0.234042D-01 -0.204719D-01 -0.762753D-02  0.205554D-01  0.128018D-02
     17  0.104528D-01  0.240903D-02 -0.107748D-01 -0.188544D-01 -0.716517D-02
     18 -0.155626D-01 -0.103564D-01  0.128119D-02  0.136690D-01 -0.870102D-02
               16            17            18 
     16  0.358292D-01
     17 -0.287506D-02  0.134008D-01
     18  0.236687D-01 -0.191195D-02  0.159707D-01
 Leave Link  716 at Sun Apr 14 22:47:01 2024, MaxMem=   104857600 cpu:               0.0 elap:               0.0
 (Enter /opt/g16/l123.exe)
 IRC-IRC-IRC-IRC-IRC-IRC-IRC-IRC-IRC-IRC-IRC-IRC-IRC-IRC-IRC-IRC-IRC-IRC
 Pt  1 Step number   1 out of a maximum of  10
 Using modified Bulirsch-Stoer corrector integration.
   Using distance weighted interpolants to fit PES.
 PreDWI: IReCr0= 2 IReCr1= 1 IReCr2= 1 IReCr3= 1
 Modified Bulirsch-Stoer Extrapolation Cycles:
    EPS =    0.000010000000000
    Cycle     1 NS=    48
      PEZero:  N= 2 I= 1 D=  1.71D-04 Err=  2.67D-04
    Cycle     2 NS=    64 Truncation Error =  0.000266935
      PEZero:  N= 3 I= 2 D=  1.71D-04 Err=  1.76D-04
      PEZero:  N= 3 I= 1 D=  3.42D-04 Err=  2.96D-06
    Cycle     3 NS=    96 Truncation Error =  0.000002961
 BS completed in    3 cycles and     208 integration steps.
 Maximum DWI energy   std dev =  0.000000148 at pt     1
 Maximum DWI gradient std dev =  0.037659487 at pt     1
 SUMMARY OF CORRECTOR INTEGRATION:
   Predictor End Point Energy =  -751.143403
   Old End Point Energy       =  -751.143403
   Corrected End Point Energy =  -751.143403
   Predictor End-Start Dist.  =     0.065635
   Old End-Start Dist.        =     0.065635
   New End-Start Dist.        =     0.065507
   New End-Old End Dist.      =     0.001853
 CORRECTOR INTEGRATION CONVERGENCE:
   Recorrection delta-x convergence threshold:    0.010000
   Delta-x Convergence Met
 Point Number:   1          Path Number:   1
                    CURRENT STRUCTURE
                Cartesian Coordinates (Ang):                
 ---------------------------------------------------------------------
 Center     Atomic                     Coordinates (Angstroms)
 Number     Number                        X           Y           Z
 ---------------------------------------------------------------------
      1          1                    0.897174   -0.641397    2.079308
      2          1                    2.264766   -0.641496    0.023783
      3          1                    0.221422   -1.879109    0.147047
      4          1                    0.699791    0.952272    0.465087
      5         14                    0.900676   -0.652854    0.598918
      6         17                   -0.838280    0.586028   -0.557428
 ---------------------------------------------------------------------
   CHANGE IN THE REACTION COORDINATE =    0.06551
   NET REACTION COORDINATE UP TO THIS POINT =    0.06551
  # OF POINTS ALONG THE PATH =   1
  # OF STEPS =   1

 Calculating another point on the path.
 Point Number  2 in FORWARD path direction.
 Using LQA Reaction Path Following.
   LQA: T_Est iteration completed in    3 iterations.
 IRC-IRC-IRC-IRC-IRC-IRC-IRC-IRC-IRC-IRC-IRC-IRC-IRC-IRC-IRC-IRC-IRC-IRC
 Leave Link  123 at Sun Apr 14 22:47:01 2024, MaxMem=   104857600 cpu:               0.0 elap:               0.0
 (Enter /opt/g16/l202.exe)
                          Input orientation:                          
 ---------------------------------------------------------------------
 Center     Atomic      Atomic             Coordinates (Angstroms)
 Number     Number       Type             X           Y           Z
 ---------------------------------------------------------------------
      1          1           0        0.892632   -0.636453    2.077063
      2          1           0        2.261307   -0.636679    0.021264
      3          1           0        0.223789   -1.882111    0.148273
      4          1           0        0.706238    0.960364    0.468930
      5         14           0        0.897417   -0.651042    0.596747
      6         17           0       -0.835712    0.584181   -0.555708
 ---------------------------------------------------------------------
                    Distance matrix (angstroms):
                    1          2          3          4          5
     1  H    0.000000
     2  H    2.469733   0.000000
     3  H    2.391494   2.391382   0.000000
     4  H    2.273908   2.273586   2.900904   0.000000
     5  Si   1.480396   1.480399   1.473239   1.627734   0.000000
     6  Cl   3.377662   3.378598   2.775018   1.889182   2.420262
                    6
     6  Cl   0.000000
 Symmetry turned off by external request.
 Stoichiometry    ClH4Si(2)
 Framework group  C1[X(ClH4Si)]
 Deg. of freedom    12
 Full point group                 C1      NOp   1
 Rotational constants (GHZ):          69.7853446           4.8707641           4.8199160
 Leave Link  202 at Sun Apr 14 22:47:01 2024, MaxMem=   104857600 cpu:               0.1 elap:               0.1
 (Enter /opt/g16/l301.exe)
 Standard basis: STO-3G (5D, 7F)
 Ernie: Thresh=  0.10000D-02 Tol=  0.10000D-05 Strict=F.
    22 basis functions,    66 primitive gaussians,    22 cartesian basis functions
    18 alpha electrons       17 beta electrons
       nuclear repulsion energy        86.2606897441 Hartrees.
 IExCor=    0 DFT=F Ex=HF Corr=None ExCW=0 ScaHFX=  1.000000
 ScaDFX=  1.000000  1.000000  1.000000  1.000000 ScalE2=  1.000000  1.000000
 IRadAn=      5 IRanWt=     -1 IRanGd=            0 ICorTp=0 IEmpDi=  4
 NAtoms=    6 NActive=    6 NUniq=    6 SFac= 1.00D+00 NAtFMM=   60 NAOKFM=F Big=F
 Integral buffers will be    131072 words long.
 Raffenetti 2 integral format.
 Two-electron integral symmetry is turned off.
 Leave Link  301 at Sun Apr 14 22:47:01 2024, MaxMem=   104857600 cpu:               0.1 elap:               0.1
 (Enter /opt/g16/l402.exe)
 External calculation of energy, first and second derivatives.
 Running external command "python3 -u ../pes/h4sicl_pes.py R"
         input file       "/home/jh-li/scratch/g16/Gau-273291.EIn"
         output file      "/home/jh-li/scratch/g16/Gau-273291.EOu"
         message file     "/home/jh-li/scratch/g16/Gau-273291.EMs"
         fchk file        "/home/jh-li/scratch/g16/Gau-273291.EFC"
         mat. el file     "/home/jh-li/scratch/g16/Gau-273291.EUF"
 initialization done
 Recovered energy= -751.143424502     dipole=      0.000000000000      0.000000000000      0.000000000000
 NRF= 0 NRA=   0 NVA=   0 HaveQM=F NVQ=       0
 Convergence limit is  0.750E-04 MaxStp= 10000 StMxLn= 3.00D-04 StpMin= 1.00D-06.
 Convergence criteria             0.00011250 0.00007500 0.00045000 0.00030000
  Step  NS  ND Rises OKQ   Scale  Max. Force  RMS Force Max. Disp.  RMS Disp.     Energy   Flag
     1   0   0   F    T  1.00D+00 0.00000000 0.00000000 0.00000000 0.00000000 -751.1434245 ====
 Running external command "python3 -u ../pes/h4sicl_pes.py R"
         input file       "/home/jh-li/scratch/g16/Gau-273291.EIn"
         output file      "/home/jh-li/scratch/g16/Gau-273291.EOu"
         message file     "/home/jh-li/scratch/g16/Gau-273291.EMs"
         fchk file        "/home/jh-li/scratch/g16/Gau-273291.EFC"
         mat. el file     "/home/jh-li/scratch/g16/Gau-273291.EUF"
 initialization done
 Recovered energy= -751.143424502     dipole=      0.000000000000      0.000000000000      0.000000000000
 Energy=    -751.143425     NIter=   0.
 Dipole moment=       0.000000       0.000000       0.000000
 Leave Link  402 at Sun Apr 14 22:47:02 2024, MaxMem=   104857600 cpu:               0.0 elap:               0.8
 (Enter /opt/g16/l716.exe)
 Dipole        = 0.00000000D+00 0.00000000D+00 0.00000000D+00
 -------------------------------------------------------------------
 Center     Atomic                   Forces (Hartrees/Bohr)
 Number     Number              X              Y              Z
 -------------------------------------------------------------------
      1        1          -0.000058192    0.000065576   -0.000030599
      2        1          -0.000046491    0.000064285   -0.000034037
      3        1           0.000034228   -0.000033971    0.000019399
      4        1           0.000086806    0.000113640    0.000053023
      5       14          -0.001162035    0.000621371   -0.000773826
      6       17           0.001140864   -0.000821166    0.000763356
 -------------------------------------------------------------------
 Cartesian Forces:  Max     0.001162035 RMS     0.000523655
 Force constants in Cartesian coordinates: 
                1             2             3             4             5 
      1  0.175266D-01
      2  0.198040D-02  0.211486D-01
      3 -0.918778D-03  0.236310D-02  0.184337D+00
      4  0.300135D-02  0.725745D-03 -0.276560D-03  0.158817D+00
      5 -0.885262D-03  0.159883D-02  0.115689D-02  0.292143D-02  0.211488D-01
      6  0.108924D-01 -0.126179D-02 -0.143771D-02 -0.599966D-01  0.928239D-03
      7  0.321532D-02 -0.466896D-03 -0.457982D-03 -0.608840D-02 -0.106009D-01
      8 -0.168108D-02  0.156205D-02 -0.143403D-02 -0.197340D-02  0.156262D-02
      9 -0.697206D-02 -0.112923D-01 -0.460149D-02  0.343275D-02  0.392503D-02
     10  0.149179D-02 -0.174679D-02  0.132723D-02 -0.340535D-02  0.652417D-02
     11  0.306438D-02 -0.788180D-02  0.513078D-02  0.592846D-02 -0.789249D-02
     12 -0.214103D-02  0.781072D-02 -0.392228D-02  0.337726D-02 -0.462507D-02
     13 -0.272541D-01  0.668010D-03  0.955287D-03 -0.153051D+00  0.243725D-02
     14 -0.135401D-02 -0.199707D-01 -0.700723D-02 -0.697331D-02 -0.199669D-01
     15 -0.715243D-03  0.232387D-02 -0.175197D+00  0.535545D-01 -0.296879D-03
     16  0.202115D-02 -0.116140D-02 -0.628735D-03  0.723608D-03 -0.398282D-03
     17 -0.112253D-02  0.354130D-02 -0.205530D-03 -0.624537D-03  0.354736D-02
     18 -0.144734D-03  0.549666D-04  0.817503D-03 -0.892792D-04 -0.108887D-02
                6             7             8             9            10 
      6  0.429654D-01
      7 -0.308172D-02  0.597496D-01
      8 -0.999414D-03  0.643614D-01  0.135209D+00
      9  0.469990D-02  0.263288D-01  0.428510D-01  0.377247D-01
     10 -0.913595D-04 -0.955064D-04  0.110129D-02  0.567267D-03  0.234848D-01
     11  0.850754D-03 -0.264376D-02  0.232580D-02 -0.176158D-02 -0.114175D-01
     12  0.984918D-03  0.569207D-03  0.731385D-03 -0.565135D-03  0.101224D-01
     13  0.518710D-01 -0.534912D-01 -0.691411D-01 -0.191299D-01  0.596572D-02
     14  0.144446D-02 -0.625098D-01 -0.128588D+00 -0.416096D-01  0.193596D-02
     15 -0.493284D-01 -0.191345D-01 -0.460218D-01 -0.375148D-01  0.844904D-02
     16  0.409559D-03 -0.328852D-02  0.733180D-02 -0.422808D-02 -0.274384D-01
     17 -0.962031D-03  0.118530D-01 -0.120772D-01  0.788283D-02  0.360864D-02
     18  0.211692D-02 -0.422475D-02  0.487151D-02  0.258714D-03 -0.203716D-01
               11            12            13            14            15 
     11  0.702523D-01
     12 -0.762842D-02  0.149888D-01
     13  0.284606D-01  0.844422D-02  0.236072D+00
     14 -0.673392D-01  0.131784D-02  0.483031D-01  0.255297D+00
     15  0.189563D-01 -0.116433D-02 -0.432664D-01  0.321662D-01  0.272388D+00
     16 -0.233957D-01 -0.203713D-01 -0.823817D-02  0.206041D-01  0.111218D-02
     17  0.105217D-01  0.239736D-02 -0.107239D-01 -0.194080D-01 -0.712520D-02
     18 -0.155497D-01 -0.103200D-01  0.112504D-02  0.136939D-01 -0.918068D-02
               16            17            18 
     16  0.362126D-01
     17 -0.298950D-02  0.138739D-01
     18  0.237025D-01 -0.198781D-02  0.163035D-01
 Leave Link  716 at Sun Apr 14 22:47:02 2024, MaxMem=   104857600 cpu:               0.0 elap:               0.0
 (Enter /opt/g16/l123.exe)
 IRC-IRC-IRC-IRC-IRC-IRC-IRC-IRC-IRC-IRC-IRC-IRC-IRC-IRC-IRC-IRC-IRC-IRC
 Pt  2 Step number   1 out of a maximum of  10
 Using modified Bulirsch-Stoer corrector integration.
   Using distance weighted interpolants to fit PES.
 PreDWI: IReCr0= 2 IReCr1= 1 IReCr2= 1 IReCr3= 1
 Modified Bulirsch-Stoer Extrapolation Cycles:
    EPS =    0.000010000000000
    Cycle     1 NS=    48
      PEZero:  N= 2 I= 1 D=  3.42D-04 Err=  3.48D-06
    Cycle     2 NS=    64 Truncation Error =  0.000003484
 BS completed in    2 cycles and     112 integration steps.
 Maximum DWI energy   std dev =  0.000000174 at pt    24
 Maximum DWI gradient std dev =  0.007511190 at pt    15
 SUMMARY OF CORRECTOR INTEGRATION:
   Predictor End Point Energy =  -751.143425
   Old End Point Energy       =  -751.143425
   Corrected End Point Energy =  -751.143425
   Predictor End-Start Dist.  =     0.065612
   Old End-Start Dist.        =     0.065612
   New End-Start Dist.        =     0.065611
   New End-Old End Dist.      =     0.000223
 CORRECTOR INTEGRATION CONVERGENCE:
   Recorrection delta-x convergence threshold:    0.010000
   Delta-x Convergence Met
 Point Number:   2          Path Number:   1
                    CURRENT STRUCTURE
                Cartesian Coordinates (Ang):                
 ---------------------------------------------------------------------
 Center     Atomic                     Coordinates (Angstroms)
 Number     Number                        X           Y           Z
 ---------------------------------------------------------------------
      1          1                    0.892630   -0.636423    2.077059
      2          1                    2.261297   -0.636644    0.021247
      3          1                    0.223813   -1.882115    0.148295
      4          1                    0.706281    0.960428    0.468968
      5         14                    0.897421   -0.651050    0.596749
      6         17                   -0.835716    0.584184   -0.555710
 ---------------------------------------------------------------------
   CHANGE IN THE REACTION COORDINATE =    0.06561
   NET REACTION COORDINATE UP TO THIS POINT =    0.13112
  # OF POINTS ALONG THE PATH =   2
  # OF STEPS =   1

 Calculating another point on the path.
 Point Number  3 in FORWARD path direction.
 Using LQA Reaction Path Following.
   LQA: T_Est iteration completed in    3 iterations.
 IRC-IRC-IRC-IRC-IRC-IRC-IRC-IRC-IRC-IRC-IRC-IRC-IRC-IRC-IRC-IRC-IRC-IRC
 Leave Link  123 at Sun Apr 14 22:47:02 2024, MaxMem=   104857600 cpu:               0.0 elap:               0.0
 (Enter /opt/g16/l202.exe)
                          Input orientation:                          
 ---------------------------------------------------------------------
 Center     Atomic      Atomic             Coordinates (Angstroms)
 Number     Number       Type             X           Y           Z
 ---------------------------------------------------------------------
      1          1           0        0.888205   -0.631396    2.074808
      2          1           0        2.257756   -0.631713    0.018561
      3          1           0        0.226218   -1.885176    0.149671
      4          1           0        0.712824    0.968667    0.473006
      5         14           0        0.894170   -0.649276    0.594583
      6         17           0       -0.833152    0.582345   -0.553996
 ---------------------------------------------------------------------
                    Distance matrix (angstroms):
                    1          2          3          4          5
     1  H    0.000000
     2  H    2.470591   0.000000
     3  H    2.390887   2.390712   0.000000
     4  H    2.270844   2.270363   2.913031   0.000000
     5  Si   1.480345   1.480364   1.473620   1.632607   0.000000
     6  Cl   3.368509   3.369788   2.775981   1.895790   2.412419
                    6
     6  Cl   0.000000
 Symmetry turned off by external request.
 Stoichiometry    ClH4Si(2)
 Framework group  C1[X(ClH4Si)]
 Deg. of freedom    12
 Full point group                 C1      NOp   1
 Rotational constants (GHZ):          69.4249846           4.9004811           4.8474645
 Leave Link  202 at Sun Apr 14 22:47:02 2024, MaxMem=   104857600 cpu:               0.0 elap:               0.0
 (Enter /opt/g16/l301.exe)
 Standard basis: STO-3G (5D, 7F)
 Ernie: Thresh=  0.10000D-02 Tol=  0.10000D-05 Strict=F.
    22 basis functions,    66 primitive gaussians,    22 cartesian basis functions
    18 alpha electrons       17 beta electrons
       nuclear repulsion energy        86.4116665577 Hartrees.
 IExCor=    0 DFT=F Ex=HF Corr=None ExCW=0 ScaHFX=  1.000000
 ScaDFX=  1.000000  1.000000  1.000000  1.000000 ScalE2=  1.000000  1.000000
 IRadAn=      5 IRanWt=     -1 IRanGd=            0 ICorTp=0 IEmpDi=  4
 NAtoms=    6 NActive=    6 NUniq=    6 SFac= 1.00D+00 NAtFMM=   60 NAOKFM=F Big=F
 Integral buffers will be    131072 words long.
 Raffenetti 2 integral format.
 Two-electron integral symmetry is turned off.
 Leave Link  301 at Sun Apr 14 22:47:02 2024, MaxMem=   104857600 cpu:               0.0 elap:               0.0
 (Enter /opt/g16/l402.exe)
 External calculation of energy, first and second derivatives.
 Running external command "python3 -u ../pes/h4sicl_pes.py R"
         input file       "/home/jh-li/scratch/g16/Gau-273291.EIn"
         output file      "/home/jh-li/scratch/g16/Gau-273291.EOu"
         message file     "/home/jh-li/scratch/g16/Gau-273291.EMs"
         fchk file        "/home/jh-li/scratch/g16/Gau-273291.EFC"
         mat. el file     "/home/jh-li/scratch/g16/Gau-273291.EUF"
 initialization done
 Recovered energy= -751.143460849     dipole=      0.000000000000      0.000000000000      0.000000000000
 NRF= 0 NRA=   0 NVA=   0 HaveQM=F NVQ=       0
 Convergence limit is  0.750E-04 MaxStp= 10000 StMxLn= 3.00D-04 StpMin= 1.00D-06.
 Convergence criteria             0.00011250 0.00007500 0.00045000 0.00030000
  Step  NS  ND Rises OKQ   Scale  Max. Force  RMS Force Max. Disp.  RMS Disp.     Energy   Flag
     1   0   0   F    T  1.00D+00 0.00000000 0.00000000 0.00000000 0.00000000 -751.1434608 ====
 Running external command "python3 -u ../pes/h4sicl_pes.py R"
         input file       "/home/jh-li/scratch/g16/Gau-273291.EIn"
         output file      "/home/jh-li/scratch/g16/Gau-273291.EOu"
         message file     "/home/jh-li/scratch/g16/Gau-273291.EMs"
         fchk file        "/home/jh-li/scratch/g16/Gau-273291.EFC"
         mat. el file     "/home/jh-li/scratch/g16/Gau-273291.EUF"
 initialization done
 Recovered energy= -751.143460849     dipole=      0.000000000000      0.000000000000      0.000000000000
 Energy=    -751.143461     NIter=   0.
 Dipole moment=       0.000000       0.000000       0.000000
 Leave Link  402 at Sun Apr 14 22:47:03 2024, MaxMem=   104857600 cpu:               0.0 elap:               0.8
 (Enter /opt/g16/l716.exe)
 Dipole        = 0.00000000D+00 0.00000000D+00 0.00000000D+00
 -------------------------------------------------------------------
 Center     Atomic                   Forces (Hartrees/Bohr)
 Number     Number              X              Y              Z
 -------------------------------------------------------------------
      1        1          -0.000086418    0.000100025   -0.000045650
      2        1          -0.000071216    0.000098449   -0.000053412
      3        1           0.000051028   -0.000054662    0.000030292
      4        1           0.000132146    0.000170628    0.000082560
      5       14          -0.001758877    0.000936754   -0.001171522
      6       17           0.001728607   -0.001241246    0.001155063
 -------------------------------------------------------------------
 Cartesian Forces:  Max     0.001758877 RMS     0.000792452
 Force constants in Cartesian coordinates: 
                1             2             3             4             5 
      1  0.175214D-01
      2  0.199446D-02  0.211855D-01
      3 -0.107195D-02  0.276886D-02  0.184240D+00
      4  0.302418D-02  0.735877D-03 -0.298419D-03  0.158656D+00
      5 -0.866557D-03  0.159428D-02  0.115951D-02  0.329192D-02  0.211871D-01
      6  0.108548D-01 -0.124472D-02 -0.138517D-02 -0.600222D-01  0.791048D-03
      7  0.323456D-02 -0.455333D-03 -0.468239D-03 -0.607068D-02 -0.106405D-01
      8 -0.172146D-02  0.150161D-02 -0.146593D-02 -0.201917D-02  0.150204D-02
      9 -0.691327D-02 -0.113371D-01 -0.460071D-02  0.341905D-02  0.394848D-02
     10  0.148018D-02 -0.181190D-02  0.127262D-02 -0.341981D-02  0.636580D-02
     11  0.305233D-02 -0.805736D-02  0.524933D-02  0.603899D-02 -0.807272D-02
     12 -0.204696D-02  0.766794D-02 -0.395210D-02  0.332267D-02 -0.462765D-02
     13 -0.273151D-01  0.685325D-03  0.114533D-02 -0.152937D+00  0.218746D-02
     14 -0.132986D-02 -0.198123D-01 -0.752936D-02 -0.744129D-02 -0.198078D-01
     15 -0.608603D-03  0.203004D-02 -0.175147D+00  0.536154D-01 -0.173068D-03
     16  0.205698D-02 -0.114942D-02 -0.578948D-03  0.743905D-03 -0.339842D-03
     17 -0.112700D-02  0.358637D-02 -0.178203D-03 -0.601698D-03  0.359510D-02
     18 -0.213383D-03  0.113457D-03  0.841227D-03 -0.345179D-04 -0.109898D-02
                6             7             8             9            10 
      6  0.430049D-01
      7 -0.302695D-02  0.589956D-01
      8 -0.102610D-02  0.638716D-01  0.135791D+00
      9  0.470066D-02  0.258231D-01  0.425473D-01  0.374158D-01
     10  0.230314D-05 -0.184806D-03  0.118101D-02  0.504433D-03  0.228994D-01
     11  0.797230D-03 -0.267769D-02  0.232086D-02 -0.178612D-02 -0.109439D-01
     12  0.961551D-03  0.507016D-03  0.784227D-03 -0.599243D-03  0.982009D-02
     13  0.518438D-01 -0.527616D-01 -0.686467D-01 -0.186460D-01  0.657211D-02
     14  0.166192D-02 -0.620191D-01 -0.128966D+00 -0.413009D-01  0.160477D-02
     15 -0.494386D-01 -0.186522D-01 -0.457119D-01 -0.372167D-01  0.868412D-02
     16  0.351736D-03 -0.321184D-02  0.733353D-02 -0.418853D-02 -0.273435D-01
     17 -0.979224D-03  0.119142D-01 -0.121559D-01  0.792380D-02  0.361141D-02
     18  0.215770D-02 -0.418367D-02  0.487113D-02  0.302039D-03 -0.202806D-01
               11            12            13            14            15 
     11  0.678879D-01
     12 -0.732683D-02  0.146552D-01
     13  0.278993D-01  0.867777D-02  0.235367D+00
     14 -0.646707D-01  0.110911D-02  0.485425D-01  0.253227D+00
     15  0.185959D-01 -0.772423D-03 -0.439384D-01  0.323438D-01  0.272267D+00
     16 -0.233725D-01 -0.202793D-01 -0.892149D-02  0.206497D-01  0.898873D-03
     17  0.105783D-01  0.239799D-02 -0.106655D-01 -0.199438D-01 -0.708321D-02
     18 -0.155312D-01 -0.102912D-01  0.916782D-03  0.137211D-01 -0.968874D-02
               16            17            18 
     16  0.366679D-01
     17 -0.313069D-02  0.143374D-01
     18  0.237923D-01 -0.208166D-02  0.166748D-01
 Leave Link  716 at Sun Apr 14 22:47:03 2024, MaxMem=   104857600 cpu:               0.0 elap:               0.0
 (Enter /opt/g16/l123.exe)
 IRC-IRC-IRC-IRC-IRC-IRC-IRC-IRC-IRC-IRC-IRC-IRC-IRC-IRC-IRC-IRC-IRC-IRC
 Pt  3 Step number   1 out of a maximum of  10
 Using modified Bulirsch-Stoer corrector integration.
   Using distance weighted interpolants to fit PES.
 PreDWI: IReCr0= 2 IReCr1= 1 IReCr2= 1 IReCr3= 1
 Modified Bulirsch-Stoer Extrapolation Cycles:
    EPS =    0.000010000000000
    Cycle     1 NS=    48
      PEZero:  N= 2 I= 1 D=  3.42D-04 Err=  1.75D-06
    Cycle     2 NS=    64 Truncation Error =  0.000001750
 BS completed in    2 cycles and     112 integration steps.
 Maximum DWI energy   std dev =  0.000000167 at pt    24
 Maximum DWI gradient std dev =  0.004361597 at pt    16
 SUMMARY OF CORRECTOR INTEGRATION:
   Predictor End Point Energy =  -751.143461
   Old End Point Energy       =  -751.143461
   Corrected End Point Energy =  -751.143461
   Predictor End-Start Dist.  =     0.065616
   Old End-Start Dist.        =     0.065616
   New End-Start Dist.        =     0.065616
   New End-Old End Dist.      =     0.000178
 CORRECTOR INTEGRATION CONVERGENCE:
   Recorrection delta-x convergence threshold:    0.010000
   Delta-x Convergence Met
 Point Number:   3          Path Number:   1
                    CURRENT STRUCTURE
                Cartesian Coordinates (Ang):                
 ---------------------------------------------------------------------
 Center     Atomic                     Coordinates (Angstroms)
 Number     Number                        X           Y           Z
 ---------------------------------------------------------------------
      1          1                    0.888199   -0.631376    2.074804
      2          1                    2.257750   -0.631691    0.018555
      3          1                    0.226236   -1.885171    0.149684
      4          1                    0.712863    0.968723    0.473033
      5         14                    0.894172   -0.649282    0.594585
      6         17                   -0.833156    0.582347   -0.553998
 ---------------------------------------------------------------------
   CHANGE IN THE REACTION COORDINATE =    0.06562
   NET REACTION COORDINATE UP TO THIS POINT =    0.19673
  # OF POINTS ALONG THE PATH =   3
  # OF STEPS =   1

 Calculating another point on the path.
 Point Number  4 in FORWARD path direction.
 Using LQA Reaction Path Following.
   LQA: T_Est iteration completed in    3 iterations.
 IRC-IRC-IRC-IRC-IRC-IRC-IRC-IRC-IRC-IRC-IRC-IRC-IRC-IRC-IRC-IRC-IRC-IRC
 Leave Link  123 at Sun Apr 14 22:47:03 2024, MaxMem=   104857600 cpu:               0.0 elap:               0.0
 (Enter /opt/g16/l202.exe)
                          Input orientation:                          
 ---------------------------------------------------------------------
 Center     Atomic      Atomic             Coordinates (Angstroms)
 Number     Number       Type             X           Y           Z
 ---------------------------------------------------------------------
      1          1           0        0.883820   -0.626265    2.072547
      2          1           0        2.254160   -0.626653    0.015778
      3          1           0        0.228704   -1.888273    0.151160
      4          1           0        0.719538    0.977123    0.477231
      5         14           0        0.890930   -0.647536    0.592425
      6         17           0       -0.830601    0.580518   -0.552293
 ---------------------------------------------------------------------
                    Distance matrix (angstroms):
                    1          2          3          4          5
     1  H    0.000000
     2  H    2.471463   0.000000
     3  H    2.390308   2.390081   0.000000
     4  H    2.267791   2.267179   2.925361   0.000000
     5  Si   1.480292   1.480322   1.474004   1.637730   0.000000
     6  Cl   3.359367   3.360910   2.777031   1.902668   2.404613
                    6
     6  Cl   0.000000
 Symmetry turned off by external request.
 Stoichiometry    ClH4Si(2)
 Framework group  C1[X(ClH4Si)]
 Deg. of freedom    12
 Full point group                 C1      NOp   1
 Rotational constants (GHZ):          69.0594206           4.9303391           4.8750696
 Leave Link  202 at Sun Apr 14 22:47:03 2024, MaxMem=   104857600 cpu:               0.0 elap:               0.0
 (Enter /opt/g16/l301.exe)
 Standard basis: STO-3G (5D, 7F)
 Ernie: Thresh=  0.10000D-02 Tol=  0.10000D-05 Strict=F.
    22 basis functions,    66 primitive gaussians,    22 cartesian basis functions
    18 alpha electrons       17 beta electrons
       nuclear repulsion energy        86.5618105650 Hartrees.
 IExCor=    0 DFT=F Ex=HF Corr=None ExCW=0 ScaHFX=  1.000000
 ScaDFX=  1.000000  1.000000  1.000000  1.000000 ScalE2=  1.000000  1.000000
 IRadAn=      5 IRanWt=     -1 IRanGd=            0 ICorTp=0 IEmpDi=  4
 NAtoms=    6 NActive=    6 NUniq=    6 SFac= 1.00D+00 NAtFMM=   60 NAOKFM=F Big=F
 Integral buffers will be    131072 words long.
 Raffenetti 2 integral format.
 Two-electron integral symmetry is turned off.
 Leave Link  301 at Sun Apr 14 22:47:03 2024, MaxMem=   104857600 cpu:               0.1 elap:               0.0
 (Enter /opt/g16/l402.exe)
 External calculation of energy, first and second derivatives.
 Running external command "python3 -u ../pes/h4sicl_pes.py R"
         input file       "/home/jh-li/scratch/g16/Gau-273291.EIn"
         output file      "/home/jh-li/scratch/g16/Gau-273291.EOu"
         message file     "/home/jh-li/scratch/g16/Gau-273291.EMs"
         fchk file        "/home/jh-li/scratch/g16/Gau-273291.EFC"
         mat. el file     "/home/jh-li/scratch/g16/Gau-273291.EUF"
 initialization done
 Recovered energy= -751.143512461     dipole=      0.000000000000      0.000000000000      0.000000000000
 NRF= 0 NRA=   0 NVA=   0 HaveQM=F NVQ=       0
 Convergence limit is  0.750E-04 MaxStp= 10000 StMxLn= 3.00D-04 StpMin= 1.00D-06.
 Convergence criteria             0.00011250 0.00007500 0.00045000 0.00030000
  Step  NS  ND Rises OKQ   Scale  Max. Force  RMS Force Max. Disp.  RMS Disp.     Energy   Flag
     1   0   0   F    T  1.00D+00 0.00000000 0.00000000 0.00000000 0.00000000 -751.1435125 ====
 Running external command "python3 -u ../pes/h4sicl_pes.py R"
         input file       "/home/jh-li/scratch/g16/Gau-273291.EIn"
         output file      "/home/jh-li/scratch/g16/Gau-273291.EOu"
         message file     "/home/jh-li/scratch/g16/Gau-273291.EMs"
         fchk file        "/home/jh-li/scratch/g16/Gau-273291.EFC"
         mat. el file     "/home/jh-li/scratch/g16/Gau-273291.EUF"
 initialization done
 Recovered energy= -751.143512461     dipole=      0.000000000000      0.000000000000      0.000000000000
 Energy=    -751.143512     NIter=   0.
 Dipole moment=       0.000000       0.000000       0.000000
 Leave Link  402 at Sun Apr 14 22:47:04 2024, MaxMem=   104857600 cpu:               0.0 elap:               0.8
 (Enter /opt/g16/l716.exe)
 Dipole        = 0.00000000D+00 0.00000000D+00 0.00000000D+00
 -------------------------------------------------------------------
 Center     Atomic                   Forces (Hartrees/Bohr)
 Number     Number              X              Y              Z
 -------------------------------------------------------------------
      1        1          -0.000115587    0.000136888   -0.000061219
      2        1          -0.000096739    0.000135263   -0.000074025
      3        1           0.000069557   -0.000076690    0.000042518
      4        1           0.000181320    0.000231666    0.000114981
      5       14          -0.002370370    0.001252190   -0.001578342
      6       17           0.002327168   -0.001669198    0.001553434
 -------------------------------------------------------------------
 Cartesian Forces:  Max     0.002370370 RMS     0.001066515
 Force constants in Cartesian coordinates: 
                1             2             3             4             5 
      1  0.175179D-01
      2  0.200663D-02  0.212212D-01
      3 -0.122217D-02  0.318726D-02  0.184141D+00
      4  0.304715D-02  0.744893D-03 -0.320158D-03  0.158489D+00
      5 -0.847346D-03  0.159115D-02  0.116083D-02  0.367543D-02  0.212237D-01
      6  0.108166D-01 -0.122681D-02 -0.133351D-02 -0.600565D-01  0.646258D-03
      7  0.325421D-02 -0.444098D-03 -0.478962D-03 -0.604900D-02 -0.106799D-01
      8 -0.176032D-02  0.143964D-02 -0.149719D-02 -0.206368D-02  0.143992D-02
      9 -0.685159D-02 -0.113822D-01 -0.459703D-02  0.340442D-02  0.397275D-02
     10  0.146506D-02 -0.187590D-02  0.121455D-02 -0.343334D-02  0.620305D-02
     11  0.303384D-02 -0.822838D-02  0.536332D-02  0.614201D-02 -0.824763D-02
     12 -0.195247D-02  0.751970D-02 -0.397921D-02  0.326310D-02 -0.462782D-02
     13 -0.273725D-01  0.702070D-03  0.133771D-02 -0.152816D+00  0.192438D-02
     14 -0.130307D-02 -0.196532D-01 -0.806435D-02 -0.792138D-02 -0.196477D-01
     15 -0.503411D-03  0.172527D-02 -0.175097D+00  0.536908D-01 -0.446951D-04
     16  0.209035D-02 -0.113464D-02 -0.530661D-03  0.759361D-03 -0.277483D-03
     17 -0.112779D-02  0.362739D-02 -0.145445D-03 -0.572420D-03  0.363832D-02
     18 -0.286320D-03  0.175102D-03  0.861955D-03  0.202990D-04 -0.110799D-02
                6             7             8             9            10 
      6  0.430553D-01
      7 -0.296971D-02  0.582373D-01
      8 -0.105129D-02  0.633765D-01  0.136371D+00
      9  0.470107D-02  0.253115D-01  0.422347D-01  0.371013D-01
     10  0.949443D-04 -0.279985D-03  0.126272D-02  0.436142D-03  0.222518D-01
     11  0.738726D-03 -0.270721D-02  0.230805D-02 -0.180751D-02 -0.104670D-01
     12  0.935666D-03  0.439222D-03  0.838541D-03 -0.635295D-03  0.947899D-02
     13  0.518282D-01 -0.520284D-01 -0.681446D-01 -0.181556D-01  0.721176D-02
     14  0.188785D-02 -0.615262D-01 -0.129335D+00 -0.409862D-01  0.124160D-02
     15 -0.495555D-01 -0.181631D-01 -0.453923D-01 -0.369133D-01  0.894162D-02
     16  0.289986D-03 -0.313292D-02  0.732813D-02 -0.414605D-02 -0.272114D-01
     17 -0.994641D-03  0.119741D-01 -0.122295D-01  0.796394D-02  0.364413D-02
     18  0.219804D-02 -0.413987D-02  0.486632D-02  0.344980D-03 -0.201632D-01
               11            12            13            14            15 
     11  0.654663D-01
     12 -0.701898D-02  0.142923D-01
     13  0.273273D-01  0.893436D-02  0.234658D+00
     14 -0.619243D-01  0.875470D-03  0.488037D-01  0.251040D+00
     15  0.182249D-01 -0.361857D-03 -0.446269D-01  0.325324D-01  0.272150D+00
     16 -0.233323D-01 -0.201615D-01 -0.964862D-02  0.207127D-01  0.659904D-03
     17  0.106123D-01  0.241881D-02 -0.106120D-01 -0.204514D-01 -0.704505D-02
     18 -0.155020D-01 -0.102500D-01  0.681462D-03  0.137606D-01 -0.102179D-01
               16            17            18 
     16  0.371350D-01
     17 -0.330581D-02  0.147988D-01
     18  0.238843D-01 -0.219822D-02  0.170588D-01
 Leave Link  716 at Sun Apr 14 22:47:04 2024, MaxMem=   104857600 cpu:               0.0 elap:               0.0
 (Enter /opt/g16/l123.exe)
 IRC-IRC-IRC-IRC-IRC-IRC-IRC-IRC-IRC-IRC-IRC-IRC-IRC-IRC-IRC-IRC-IRC-IRC
 Pt  4 Step number   1 out of a maximum of  10
 Using modified Bulirsch-Stoer corrector integration.
   Using distance weighted interpolants to fit PES.
 PreDWI: IReCr0= 2 IReCr1= 1 IReCr2= 1 IReCr3= 1
 Modified Bulirsch-Stoer Extrapolation Cycles:
    EPS =    0.000010000000000
    Cycle     1 NS=    48
      PEZero:  N= 2 I= 1 D=  3.42D-04 Err=  1.60D-06
    Cycle     2 NS=    64 Truncation Error =  0.000001603
 BS completed in    2 cycles and     112 integration steps.
 Maximum DWI energy   std dev =  0.000000168 at pt    24
 Maximum DWI gradient std dev =  0.003147982 at pt    12
 SUMMARY OF CORRECTOR INTEGRATION:
   Predictor End Point Energy =  -751.143512
   Old End Point Energy       =  -751.143512
   Corrected End Point Energy =  -751.143512
   Predictor End-Start Dist.  =     0.065618
   Old End-Start Dist.        =     0.065618
   New End-Start Dist.        =     0.065617
   New End-Old End Dist.      =     0.000156
 CORRECTOR INTEGRATION CONVERGENCE:
   Recorrection delta-x convergence threshold:    0.010000
   Delta-x Convergence Met
 Point Number:   4          Path Number:   1
                    CURRENT STRUCTURE
                Cartesian Coordinates (Ang):                
 ---------------------------------------------------------------------
 Center     Atomic                     Coordinates (Angstroms)
 Number     Number                        X           Y           Z
 ---------------------------------------------------------------------
      1          1                    0.883816   -0.626249    2.072543
      2          1                    2.254155   -0.626637    0.015775
      3          1                    0.228719   -1.888266    0.151171
      4          1                    0.719573    0.977173    0.477255
      5         14                    0.890932   -0.647541    0.592427
      6         17                   -0.830604    0.580519   -0.552295
 ---------------------------------------------------------------------
   CHANGE IN THE REACTION COORDINATE =    0.06562
   NET REACTION COORDINATE UP TO THIS POINT =    0.26235
  # OF POINTS ALONG THE PATH =   4
  # OF STEPS =   1

 Calculating another point on the path.
 Point Number  5 in FORWARD path direction.
 Using LQA Reaction Path Following.
   LQA: T_Est iteration completed in    3 iterations.
 IRC-IRC-IRC-IRC-IRC-IRC-IRC-IRC-IRC-IRC-IRC-IRC-IRC-IRC-IRC-IRC-IRC-IRC
 Leave Link  123 at Sun Apr 14 22:47:04 2024, MaxMem=   104857600 cpu:               0.0 elap:               0.0
 (Enter /opt/g16/l202.exe)
                          Input orientation:                          
 ---------------------------------------------------------------------
 Center     Atomic      Atomic             Coordinates (Angstroms)
 Number     Number       Type             X           Y           Z
 ---------------------------------------------------------------------
      1          1           0        0.879461   -0.621051    2.070279
      2          1           0        2.250527   -0.621493    0.012934
      3          1           0        0.231261   -1.891407    0.152734
      4          1           0        0.726405    0.985743    0.481609
      5         14           0        0.887699   -0.645822    0.590274
      6         17           0       -0.828062    0.578699   -0.550599
 ---------------------------------------------------------------------
                    Distance matrix (angstroms):
                    1          2          3          4          5
     1  H    0.000000
     2  H    2.472346   0.000000
     3  H    2.389759   2.389490   0.000000
     4  H    2.264748   2.264026   2.937911   0.000000
     5  Si   1.480235   1.480275   1.474393   1.643115   0.000000
     6  Cl   3.350229   3.351976   2.778176   1.909845   2.396848
                    6
     6  Cl   0.000000
 Symmetry turned off by external request.
 Stoichiometry    ClH4Si(2)
 Framework group  C1[X(ClH4Si)]
 Deg. of freedom    12
 Full point group                 C1      NOp   1
 Rotational constants (GHZ):          68.6881593           4.9603204           4.9027079
 Leave Link  202 at Sun Apr 14 22:47:04 2024, MaxMem=   104857600 cpu:               0.0 elap:               0.0
 (Enter /opt/g16/l301.exe)
 Standard basis: STO-3G (5D, 7F)
 Ernie: Thresh=  0.10000D-02 Tol=  0.10000D-05 Strict=F.
    22 basis functions,    66 primitive gaussians,    22 cartesian basis functions
    18 alpha electrons       17 beta electrons
       nuclear repulsion energy        86.7109222376 Hartrees.
 IExCor=    0 DFT=F Ex=HF Corr=None ExCW=0 ScaHFX=  1.000000
 ScaDFX=  1.000000  1.000000  1.000000  1.000000 ScalE2=  1.000000  1.000000
 IRadAn=      5 IRanWt=     -1 IRanGd=            0 ICorTp=0 IEmpDi=  4
 NAtoms=    6 NActive=    6 NUniq=    6 SFac= 1.00D+00 NAtFMM=   60 NAOKFM=F Big=F
 Integral buffers will be    131072 words long.
 Raffenetti 2 integral format.
 Two-electron integral symmetry is turned off.
 Leave Link  301 at Sun Apr 14 22:47:04 2024, MaxMem=   104857600 cpu:               0.1 elap:               0.1
 (Enter /opt/g16/l402.exe)
 External calculation of energy, first and second derivatives.
 Running external command "python3 -u ../pes/h4sicl_pes.py R"
         input file       "/home/jh-li/scratch/g16/Gau-273291.EIn"
         output file      "/home/jh-li/scratch/g16/Gau-273291.EOu"
         message file     "/home/jh-li/scratch/g16/Gau-273291.EMs"
         fchk file        "/home/jh-li/scratch/g16/Gau-273291.EFC"
         mat. el file     "/home/jh-li/scratch/g16/Gau-273291.EUF"
 initialization done
 Recovered energy= -751.143579814     dipole=      0.000000000000      0.000000000000      0.000000000000
 NRF= 0 NRA=   0 NVA=   0 HaveQM=F NVQ=       0
 Convergence limit is  0.750E-04 MaxStp= 10000 StMxLn= 3.00D-04 StpMin= 1.00D-06.
 Convergence criteria             0.00011250 0.00007500 0.00045000 0.00030000
  Step  NS  ND Rises OKQ   Scale  Max. Force  RMS Force Max. Disp.  RMS Disp.     Energy   Flag
     1   0   0   F    T  1.00D+00 0.00000000 0.00000000 0.00000000 0.00000000 -751.1435798 ====
 Running external command "python3 -u ../pes/h4sicl_pes.py R"
         input file       "/home/jh-li/scratch/g16/Gau-273291.EIn"
         output file      "/home/jh-li/scratch/g16/Gau-273291.EOu"
         message file     "/home/jh-li/scratch/g16/Gau-273291.EMs"
         fchk file        "/home/jh-li/scratch/g16/Gau-273291.EFC"
         mat. el file     "/home/jh-li/scratch/g16/Gau-273291.EUF"
 initialization done
 Recovered energy= -751.143579814     dipole=      0.000000000000      0.000000000000      0.000000000000
 Energy=    -751.143580     NIter=   0.
 Dipole moment=       0.000000       0.000000       0.000000
 Leave Link  402 at Sun Apr 14 22:47:05 2024, MaxMem=   104857600 cpu:               0.0 elap:               0.8
 (Enter /opt/g16/l716.exe)
 Dipole        = 0.00000000D+00 0.00000000D+00 0.00000000D+00
 -------------------------------------------------------------------
 Center     Atomic                   Forces (Hartrees/Bohr)
 Number     Number              X              Y              Z
 -------------------------------------------------------------------
      1        1          -0.000145730    0.000176199   -0.000077398
      2        1          -0.000123358    0.000174669   -0.000095651
      3        1           0.000089954   -0.000099922    0.000056114
      4        1           0.000234924    0.000297263    0.000150617
      5       14          -0.002997462    0.001568043   -0.001995285
      6       17           0.002937090   -0.002106008    0.001958966
 -------------------------------------------------------------------
 Cartesian Forces:  Max     0.002997462 RMS     0.001346284
 Force constants in Cartesian coordinates: 
                1             2             3             4             5 
      1  0.175165D-01
      2  0.201668D-02  0.212559D-01
      3 -0.137125D-02  0.361908D-02  0.184042D+00
      4  0.307002D-02  0.752729D-03 -0.341500D-03  0.158317D+00
      5 -0.827619D-03  0.158942D-02  0.116075D-02  0.407247D-02  0.212591D-01
      6  0.107781D-01 -0.120796D-02 -0.128283D-02 -0.600976D-01  0.493415D-03
      7  0.327422D-02 -0.433058D-03 -0.489893D-03 -0.602324D-02 -0.107191D-01
      8 -0.179743D-02  0.137615D-02 -0.152792D-02 -0.210697D-02  0.137624D-02
      9 -0.678690D-02 -0.114275D-01 -0.459032D-02  0.338879D-02  0.399769D-02
     10  0.144589D-02 -0.193831D-02  0.115361D-02 -0.344562D-02  0.603638D-02
     11  0.300842D-02 -0.839446D-02  0.547215D-02  0.623697D-02 -0.841696D-02
     12 -0.185786D-02  0.736636D-02 -0.400317D-02  0.319868D-02 -0.462508D-02
     13 -0.274257D-01  0.718414D-03  0.153341D-02 -0.152690D+00  0.164746D-02
     14 -0.127364D-02 -0.194934D-01 -0.861210D-02 -0.841357D-02 -0.194870D-01
     15 -0.397470D-03  0.140857D-02 -0.175049D+00  0.537787D-01  0.887766D-04
     16  0.212110D-02 -0.111754D-02 -0.484165D-03  0.769389D-03 -0.211544D-03
     17 -0.112446D-02  0.366400D-02 -0.107310D-03 -0.536568D-03  0.367675D-02
     18 -0.363897D-03  0.239728D-03  0.879342D-03  0.749207D-04 -0.111622D-02
                6             7             8             9            10 
      6  0.431151D-01
      7 -0.291024D-02  0.574737D-01
      8 -0.107483D-02  0.628755D-01  0.136949D+00
      9  0.470104D-02  0.247942D-01  0.419143D-01  0.367822D-01
     10  0.185804D-03 -0.381122D-03  0.134642D-02  0.362417D-03  0.215431D-01
     11  0.675199D-03 -0.273281D-02  0.228785D-02 -0.182612D-02 -0.998932D-02
     12  0.906994D-03  0.365876D-03  0.894287D-03 -0.673227D-03  0.910002D-02
     13  0.518233D-01 -0.512899D-01 -0.676350D-01 -0.176585D-01  0.788602D-02
     14  0.212216D-02 -0.610305D-01 -0.129698D+00 -0.406665D-01  0.845706D-03
     15 -0.496773D-01 -0.176670D-01 -0.450645D-01 -0.366052D-01  0.922203D-02
     16  0.224266D-03 -0.305259D-02  0.731622D-02 -0.410118D-02 -0.270442D-01
     17 -0.100795D-02  0.120334D-01 -0.122983D-01  0.800368D-02  0.370914D-02
     18  0.223795D-02 -0.409386D-02  0.485742D-02  0.387215D-03 -0.200208D-01
               11            12            13            14            15 
     11  0.629909D-01
     12 -0.670750D-02  0.139004D-01
     13  0.267484D-01  0.921432D-02  0.233939D+00
     14 -0.591055D-01  0.617304D-03  0.490882D-01  0.248741D+00
     15  0.178468D-01  0.673525D-04 -0.453363D-01  0.327338D-01  0.272034D+00
     16 -0.232749D-01 -0.200190D-01 -0.104146D-01  0.207916D-01  0.398772D-03
     17  0.106247D-01  0.246130D-02 -0.105683D-01 -0.209270D-01 -0.701395D-02
     18 -0.154619D-01 -0.101970D-01  0.422915D-03  0.138111D-01 -0.107664D-01
               16            17            18 
     16  0.376125D-01
     17 -0.351339D-02  0.152543D-01
     18  0.239773D-01 -0.233643D-02  0.174548D-01
 Leave Link  716 at Sun Apr 14 22:47:05 2024, MaxMem=   104857600 cpu:               0.0 elap:               0.0
 (Enter /opt/g16/l123.exe)
 IRC-IRC-IRC-IRC-IRC-IRC-IRC-IRC-IRC-IRC-IRC-IRC-IRC-IRC-IRC-IRC-IRC-IRC
 Pt  5 Step number   1 out of a maximum of  10
 Using modified Bulirsch-Stoer corrector integration.
   Using distance weighted interpolants to fit PES.
 PreDWI: IReCr0= 2 IReCr1= 1 IReCr2= 1 IReCr3= 1
 Modified Bulirsch-Stoer Extrapolation Cycles:
    EPS =    0.000010000000000
    Cycle     1 NS=    48
      PEZero:  N= 2 I= 1 D=  3.42D-04 Err=  1.62D-06
    Cycle     2 NS=    64 Truncation Error =  0.000001624
 BS completed in    2 cycles and     112 integration steps.
 Maximum DWI energy   std dev =  0.000000168 at pt    32
 Maximum DWI gradient std dev =  0.002507047 at pt    12
 SUMMARY OF CORRECTOR INTEGRATION:
   Predictor End Point Energy =  -751.143580
   Old End Point Energy       =  -751.143580
   Corrected End Point Energy =  -751.143580
   Predictor End-Start Dist.  =     0.065619
   Old End-Start Dist.        =     0.065619
   New End-Start Dist.        =     0.065618
   New End-Old End Dist.      =     0.000141
 CORRECTOR INTEGRATION CONVERGENCE:
   Recorrection delta-x convergence threshold:    0.010000
   Delta-x Convergence Met
 Point Number:   5          Path Number:   1
                    CURRENT STRUCTURE
                Cartesian Coordinates (Ang):                
 ---------------------------------------------------------------------
 Center     Atomic                     Coordinates (Angstroms)
 Number     Number                        X           Y           Z
 ---------------------------------------------------------------------
      1          1                    0.879458   -0.621039    2.070276
      2          1                    2.250523   -0.621480    0.012932
      3          1                    0.231274   -1.891398    0.152744
      4          1                    0.726438    0.985789    0.481632
      5         14                    0.887701   -0.645826    0.590276
      6         17                   -0.828065    0.578700   -0.550600
 ---------------------------------------------------------------------
   CHANGE IN THE REACTION COORDINATE =    0.06562
   NET REACTION COORDINATE UP TO THIS POINT =    0.32797
  # OF POINTS ALONG THE PATH =   5
  # OF STEPS =   1

 Calculating another point on the path.
 Point Number  6 in FORWARD path direction.
 Using LQA Reaction Path Following.
   LQA: T_Est iteration completed in    3 iterations.
 IRC-IRC-IRC-IRC-IRC-IRC-IRC-IRC-IRC-IRC-IRC-IRC-IRC-IRC-IRC-IRC-IRC-IRC
 Leave Link  123 at Sun Apr 14 22:47:05 2024, MaxMem=   104857600 cpu:               0.0 elap:               0.0
 (Enter /opt/g16/l202.exe)
                          Input orientation:                          
 ---------------------------------------------------------------------
 Center     Atomic      Atomic             Coordinates (Angstroms)
 Number     Number       Type             X           Y           Z
 ---------------------------------------------------------------------
      1          1           0        0.875119   -0.615751    2.068005
      2          1           0        2.246866   -0.616233    0.010043
      3          1           0        0.233899   -1.894576    0.154389
      4          1           0        0.733453    0.994540    0.486147
      5         14           0        0.884479   -0.644134    0.588131
      6         17           0       -0.825538    0.576890   -0.548915
 ---------------------------------------------------------------------
                    Distance matrix (angstroms):
                    1          2          3          4          5
     1  H    0.000000
     2  H    2.473236   0.000000
     3  H    2.389243   2.388939   0.000000
     4  H    2.261721   2.260902   2.950696   0.000000
     5  Si   1.480176   1.480223   1.474785   1.648775   0.000000
     6  Cl   3.341093   3.342999   2.779422   1.917352   2.389128
                    6
     6  Cl   0.000000
 Symmetry turned off by external request.
 Stoichiometry    ClH4Si(2)
 Framework group  C1[X(ClH4Si)]
 Deg. of freedom    12
 Full point group                 C1      NOp   1
 Rotational constants (GHZ):          68.3108391           4.9904084           4.9303568
 Leave Link  202 at Sun Apr 14 22:47:05 2024, MaxMem=   104857600 cpu:               0.0 elap:               0.0
 (Enter /opt/g16/l301.exe)
 Standard basis: STO-3G (5D, 7F)
 Ernie: Thresh=  0.10000D-02 Tol=  0.10000D-05 Strict=F.
    22 basis functions,    66 primitive gaussians,    22 cartesian basis functions
    18 alpha electrons       17 beta electrons
       nuclear repulsion energy        86.8588195470 Hartrees.
 IExCor=    0 DFT=F Ex=HF Corr=None ExCW=0 ScaHFX=  1.000000
 ScaDFX=  1.000000  1.000000  1.000000  1.000000 ScalE2=  1.000000  1.000000
 IRadAn=      5 IRanWt=     -1 IRanGd=            0 ICorTp=0 IEmpDi=  4
 NAtoms=    6 NActive=    6 NUniq=    6 SFac= 1.00D+00 NAtFMM=   60 NAOKFM=F Big=F
 Integral buffers will be    131072 words long.
 Raffenetti 2 integral format.
 Two-electron integral symmetry is turned off.
 Leave Link  301 at Sun Apr 14 22:47:05 2024, MaxMem=   104857600 cpu:               0.0 elap:               0.0
 (Enter /opt/g16/l402.exe)
 External calculation of energy, first and second derivatives.
 Running external command "python3 -u ../pes/h4sicl_pes.py R"
         input file       "/home/jh-li/scratch/g16/Gau-273291.EIn"
         output file      "/home/jh-li/scratch/g16/Gau-273291.EOu"
         message file     "/home/jh-li/scratch/g16/Gau-273291.EMs"
         fchk file        "/home/jh-li/scratch/g16/Gau-273291.EFC"
         mat. el file     "/home/jh-li/scratch/g16/Gau-273291.EUF"
 initialization done
 Recovered energy= -751.143663440     dipole=      0.000000000000      0.000000000000      0.000000000000
 NRF= 0 NRA=   0 NVA=   0 HaveQM=F NVQ=       0
 Convergence limit is  0.750E-04 MaxStp= 10000 StMxLn= 3.00D-04 StpMin= 1.00D-06.
 Convergence criteria             0.00011250 0.00007500 0.00045000 0.00030000
  Step  NS  ND Rises OKQ   Scale  Max. Force  RMS Force Max. Disp.  RMS Disp.     Energy   Flag
     1   0   0   F    T  1.00D+00 0.00000000 0.00000000 0.00000000 0.00000000 -751.1436634 ====
 Running external command "python3 -u ../pes/h4sicl_pes.py R"
         input file       "/home/jh-li/scratch/g16/Gau-273291.EIn"
         output file      "/home/jh-li/scratch/g16/Gau-273291.EOu"
         message file     "/home/jh-li/scratch/g16/Gau-273291.EMs"
         fchk file        "/home/jh-li/scratch/g16/Gau-273291.EFC"
         mat. el file     "/home/jh-li/scratch/g16/Gau-273291.EUF"
 initialization done
 Recovered energy= -751.143663440     dipole=      0.000000000000      0.000000000000      0.000000000000
 Energy=    -751.143663     NIter=   0.
 Dipole moment=       0.000000       0.000000       0.000000
 Leave Link  402 at Sun Apr 14 22:47:06 2024, MaxMem=   104857600 cpu:               0.0 elap:               0.8
 (Enter /opt/g16/l716.exe)
 Dipole        = 0.00000000D+00 0.00000000D+00 0.00000000D+00
 -------------------------------------------------------------------
 Center     Atomic                   Forces (Hartrees/Bohr)
 Number     Number              X              Y              Z
 -------------------------------------------------------------------
      1        1          -0.000176889    0.000218129   -0.000094243
      2        1          -0.000151104    0.000216805   -0.000118227
      3        1           0.000112416   -0.000124458    0.000071184
      4        1           0.000293743    0.000367988    0.000189928
      5       14          -0.003641556    0.001884394   -0.002423343
      6       17           0.003558873   -0.002552538    0.002372084
 -------------------------------------------------------------------
 Cartesian Forces:  Max     0.003641556 RMS     0.001632224
 Force constants in Cartesian coordinates: 
                1             2             3             4             5 
      1  0.175177D-01
      2  0.202437D-02  0.212899D-01
      3 -0.152032D-02  0.406468D-02  0.183942D+00
      4  0.309254D-02  0.759308D-03 -0.362150D-03  0.158140D+00
      5 -0.807352D-03  0.158907D-02  0.115915D-02  0.448294D-02  0.212936D-01
      6  0.107394D-01 -0.118807D-02 -0.123334D-02 -0.601443D-01  0.332327D-03
      7  0.329452D-02 -0.422112D-03 -0.500787D-03 -0.599331D-02 -0.107583D-01
      8 -0.183258D-02  0.131116D-02 -0.155829D-02 -0.214913D-02  0.131102D-02
      9 -0.671919D-02 -0.114731D-01 -0.458048D-02  0.337213D-02  0.402322D-02
     10  0.142213D-02 -0.199860D-02  0.109051D-02 -0.345614D-02  0.586628D-02
     11  0.297562D-02 -0.855518D-02  0.557516D-02  0.632324D-02 -0.858041D-02
     12 -0.176342D-02  0.720826D-02 -0.402342D-02  0.312965D-02 -0.461895D-02
     13 -0.274738D-01  0.734551D-03  0.173259D-02 -0.152560D+00  0.135673D-02
     14 -0.124155D-02 -0.193334D-01 -0.917188D-02 -0.891698D-02 -0.193260D-01
     15 -0.289203D-03  0.107926D-02 -0.175002D+00  0.538775D-01  0.227635D-03
     16  0.214900D-02 -0.109862D-02 -0.439742D-03  0.773420D-03 -0.142377D-03
     17 -0.111654D-02  0.369583D-02 -0.639703D-04 -0.494128D-03  0.371012D-02
     18 -0.446462D-03  0.307162D-03  0.893051D-03  0.129117D-03 -0.112402D-02
                6             7             8             9            10 
      6  0.431835D-01
      7 -0.284878D-02  0.567046D-01
      8 -0.109654D-02  0.623683D-01  0.137527D+00
      9  0.470048D-02  0.242717D-01  0.415871D-01  0.364591D-01
     10  0.274063D-03 -0.488015D-03  0.143175D-02  0.283451D-03  0.207760D-01
     11  0.606605D-03 -0.275504D-02  0.226072D-02 -0.184233D-02 -0.951346D-02
     12  0.875207D-03  0.287199D-03  0.951193D-03 -0.712879D-03  0.868527D-02
     13  0.518289D-01 -0.505451D-01 -0.671180D-01 -0.171548D-01  0.859422D-02
     14  0.236439D-02 -0.605320D-01 -0.130055D+00 -0.403427D-01  0.417842D-03
     15 -0.498023D-01 -0.171641D-01 -0.447296D-01 -0.362930D-01  0.952460D-02
     16  0.154496D-03 -0.297172D-02  0.729850D-02 -0.405453D-02 -0.268441D-01
     17 -0.101875D-02  0.120926D-01 -0.123626D-01  0.804340D-02  0.380759D-02
     18  0.227742D-02 -0.404620D-02  0.484482D-02  0.428425D-03 -0.198549D-01
               11            12            13            14            15 
     11  0.604658D-01
     12 -0.639489D-02  0.134804D-01
     13  0.261667D-01  0.951674D-02  0.233204D+00
     14 -0.562207D-01  0.335802D-03  0.493956D-01  0.246335D+00
     15  0.174648D-01  0.514389D-03 -0.460692D-01  0.329485D-01  0.271920D+00
     16 -0.232001D-01 -0.198532D-01 -0.112144D-01  0.208850D-01  0.119032D-03
     17  0.106165D-01  0.252617D-02 -0.105380D-01 -0.213681D-01 -0.699222D-02
     18 -0.154106D-01 -0.101325D-01  0.144970D-03  0.138716D-01 -0.113325D-01
               16            17            18 
     16  0.380992D-01
     17 -0.375201D-02  0.157010D-01
[...]
 Deg. of freedom    12
 Full point group                 C1      NOp   1
 Rotational constants (GHZ):          85.1691082           2.7971066           2.7946162
 Leave Link  202 at Sun Apr 14 22:49:55 2024, MaxMem=   104857600 cpu:               0.0 elap:               0.0
 (Enter /opt/g16/l301.exe)
 Standard basis: STO-3G (5D, 7F)
 Ernie: Thresh=  0.10000D-02 Tol=  0.10000D-05 Strict=F.
    22 basis functions,    66 primitive gaussians,    22 cartesian basis functions
    18 alpha electrons       17 beta electrons
       nuclear repulsion energy        72.4350557097 Hartrees.
 IExCor=    0 DFT=F Ex=HF Corr=None ExCW=0 ScaHFX=  1.000000
 ScaDFX=  1.000000  1.000000  1.000000  1.000000 ScalE2=  1.000000  1.000000
 IRadAn=      5 IRanWt=     -1 IRanGd=            0 ICorTp=0 IEmpDi=  4
 NAtoms=    6 NActive=    6 NUniq=    6 SFac= 1.00D+00 NAtFMM=   60 NAOKFM=F Big=F
 Integral buffers will be    131072 words long.
 Raffenetti 2 integral format.
 Two-electron integral symmetry is turned off.
 Leave Link  301 at Sun Apr 14 22:49:55 2024, MaxMem=   104857600 cpu:               0.0 elap:               0.1
 (Enter /opt/g16/l402.exe)
 External calculation of energy, first and second derivatives.
 Running external command "python3 -u ../pes/h4sicl_pes.py R"
         input file       "/home/jh-li/scratch/g16/Gau-273291.EIn"
         output file      "/home/jh-li/scratch/g16/Gau-273291.EOu"
         message file     "/home/jh-li/scratch/g16/Gau-273291.EMs"
         fchk file        "/home/jh-li/scratch/g16/Gau-273291.EFC"
         mat. el file     "/home/jh-li/scratch/g16/Gau-273291.EUF"
 initialization done
 Recovered energy= -751.160867928     dipole=      0.000000000000      0.000000000000      0.000000000000
 NRF= 0 NRA=   0 NVA=   0 HaveQM=F NVQ=       0
 Convergence limit is  0.750E-04 MaxStp= 10000 StMxLn= 3.00D-04 StpMin= 1.00D-06.
 Convergence criteria             0.00011250 0.00007500 0.00045000 0.00030000
  Step  NS  ND Rises OKQ   Scale  Max. Force  RMS Force Max. Disp.  RMS Disp.     Energy   Flag
     1   0   0   F    T  1.00D+00 0.00000000 0.00000000 0.00000000 0.00000000 -751.1608679 ====
 Running external command "python3 -u ../pes/h4sicl_pes.py R"
         input file       "/home/jh-li/scratch/g16/Gau-273291.EIn"
         output file      "/home/jh-li/scratch/g16/Gau-273291.EOu"
         message file     "/home/jh-li/scratch/g16/Gau-273291.EMs"
         fchk file        "/home/jh-li/scratch/g16/Gau-273291.EFC"
         mat. el file     "/home/jh-li/scratch/g16/Gau-273291.EUF"
 initialization done
 Recovered energy= -751.160867928     dipole=      0.000000000000      0.000000000000      0.000000000000
 Energy=    -751.160868     NIter=   0.
 Dipole moment=       0.000000       0.000000       0.000000
 Leave Link  402 at Sun Apr 14 22:49:56 2024, MaxMem=   104857600 cpu:               0.0 elap:               0.8
 (Enter /opt/g16/l716.exe)
 Dipole        = 0.00000000D+00 0.00000000D+00 0.00000000D+00
 -------------------------------------------------------------------
 Center     Atomic                   Forces (Hartrees/Bohr)
 Number     Number              X              Y              Z
 -------------------------------------------------------------------
      1        1           0.000152839   -0.000193379    0.000148907
      2        1           0.000268252   -0.000313132    0.000237601
      3        1           0.000120009   -0.000046064    0.000060405
      4        1          -0.000212957    0.000197872   -0.000227617
      5       14           0.006429635   -0.004408709    0.004101267
      6       17          -0.006755009    0.004759991   -0.004321155
 -------------------------------------------------------------------
 Cartesian Forces:  Max     0.006755009 RMS     0.003027864
 Force constants in Cartesian coordinates: 
                1             2             3             4             5 
      1  0.180944D-01
      2  0.344441D-02  0.129706D-01
      3 -0.883268D-02  0.113486D-01  0.185362D+00
      4  0.301746D-02  0.629445D-04 -0.245167D-03  0.166148D+00
      5 -0.108771D-02  0.341198D-02  0.327119D-03  0.446529D-02  0.126289D-01
      6  0.131204D-01 -0.177134D-02 -0.846849D-03 -0.545546D-01  0.269754D-02
      7  0.276692D-02  0.144795D-04 -0.658585D-03 -0.373906D-02 -0.104528D-01
      8  0.269968D-03  0.305569D-02  0.368618D-03  0.805352D-03  0.353016D-02
      9 -0.618594D-02 -0.110828D-01 -0.189892D-02  0.134433D-02  0.320222D-02
     10  0.103242D-02 -0.260119D-02  0.230114D-02  0.121069D-02 -0.138528D-02
     11 -0.839319D-03  0.187367D-02 -0.167180D-02 -0.183748D-02  0.211823D-02
     12 -0.437134D-03  0.156086D-03  0.333359D-03  0.210906D-02 -0.261175D-02
     13 -0.238769D-01 -0.393390D-02  0.948434D-02 -0.164937D+00  0.554600D-02
     14 -0.215518D-02 -0.204555D-01 -0.109168D-01 -0.424608D-02 -0.206769D-01
     15  0.242189D-02  0.238553D-03 -0.182390D+00  0.531245D-01 -0.612909D-02
     16 -0.103313D-02  0.301209D-02 -0.204911D-02 -0.170269D-02  0.291471D-02
     17  0.367238D-03 -0.854361D-03  0.542261D-03  0.748018D-03 -0.101012D-02
     18 -0.871434D-04  0.111159D-02 -0.564222D-03 -0.177801D-02  0.251366D-02
                6             7             8             9            10 
      6  0.374311D-01
      7 -0.379680D-02  0.658426D-01
      8  0.250212D-03  0.727054D-01  0.113224D+00
      9  0.409828D-02  0.313887D-01  0.505120D-01  0.412737D-01
     10  0.427591D-04 -0.654818D-03 -0.109694D-02 -0.442864D-03  0.155510D+00
     11 -0.544807D-03  0.919404D-03 -0.102933D-02  0.676131D-03 -0.381821D-02
     12  0.823751D-03 -0.572130D-03 -0.822758D-03 -0.630369D-04  0.892251D-01
     13  0.458388D-01 -0.643341D-01 -0.728296D-01 -0.260418D-01  0.115681D-01
     14 -0.100315D-02 -0.642361D-01 -0.119124D+00 -0.439849D-01 -0.100971D-01
     15 -0.407738D-01 -0.263863D-01 -0.504371D-01 -0.433758D-01  0.888260D-02
     16 -0.649173D-03  0.118665D-03  0.143255D-03 -0.628131D-04 -0.168665D+00
     17  0.371281D-03  0.104696D-02  0.346363D-03  0.675273D-03  0.190025D-01
     18 -0.731547D-03  0.248719D-04  0.128378D-03 -0.336113D-04 -0.100010D+00
               11            12            13            14            15 
     11  0.464495D-02
     12 -0.237419D-02  0.559064D-01
     13  0.869633D-03  0.814085D-02  0.258850D+00
     14 -0.635371D-02 -0.543577D-02  0.663598D-01  0.168182D+00
     15  0.115825D-02  0.263144D-02 -0.256360D-01  0.527283D-01  0.269294D+00
     16  0.470882D-02 -0.984670D-01 -0.172720D-01  0.143762D-01 -0.124065D-01
     17 -0.125282D-02  0.110908D-01  0.398834D-02 -0.157615D-02  0.244226D-02
     18  0.275737D-02 -0.596297D-01 -0.117843D-01  0.861142D-02 -0.538619D-02
               16            17            18 
     16  0.188556D+00
     17 -0.251539D-01  0.434478D-02
     18  0.113634D+00 -0.151215D-01  0.663455D-01
 Leave Link  716 at Sun Apr 14 22:49:56 2024, MaxMem=   104857600 cpu:               0.0 elap:               0.0
 (Enter /opt/g16/l123.exe)
 IRC-IRC-IRC-IRC-IRC-IRC-IRC-IRC-IRC-IRC-IRC-IRC-IRC-IRC-IRC-IRC-IRC-IRC
 Pt183 Step number   1 out of a maximum of  10
 Using modified Bulirsch-Stoer corrector integration.
   Using distance weighted interpolants to fit PES.
 PreDWI: IReCr0= 2 IReCr1= 1 IReCr2= 1 IReCr3= 1
 Modified Bulirsch-Stoer Extrapolation Cycles:
    EPS =    0.000010000000000
    Cycle     1 NS=    48
      PEZero:  N= 2 I= 1 D=  3.42D-04 Err=  1.55D-06
    Cycle     2 NS=    64 Truncation Error =  0.000001550
 BS completed in    2 cycles and     112 integration steps.
 Maximum DWI energy   std dev =  0.000000029 at pt    24
 Maximum DWI gradient std dev =  0.000644328 at pt    17
 SUMMARY OF CORRECTOR INTEGRATION:
   Predictor End Point Energy =  -751.160868
   Old End Point Energy       =  -751.160868
   Corrected End Point Energy =  -751.160868
   Predictor End-Start Dist.  =     0.065622
   Old End-Start Dist.        =     0.065622
   New End-Start Dist.        =     0.065622
   New End-Old End Dist.      =     0.000031
 CORRECTOR INTEGRATION CONVERGENCE:
   Recorrection delta-x convergence threshold:    0.010000
   Delta-x Convergence Met
 Point Number: 100          Path Number:   2
                    CURRENT STRUCTURE
                Cartesian Coordinates (Ang):                
 ---------------------------------------------------------------------
 Center     Atomic                     Coordinates (Angstroms)
 Number     Number                        X           Y           Z
 ---------------------------------------------------------------------
      1          1                    1.153489   -0.792936    2.283598
      2          1                    2.613395   -0.859679    0.305762
      3          1                    0.438966   -2.004741    0.268332
      4          1                    0.022385    0.661965   -0.058562
      5         14                    1.222008   -0.875997    0.808432
      6         17                   -1.099767    0.787272   -0.727588
 ---------------------------------------------------------------------
   CHANGE IN THE REACTION COORDINATE =    0.06562
   NET REACTION COORDINATE UP TO THIS POINT =    6.56190
  # OF POINTS ALONG THE PATH = 183
  # OF STEPS =   1

 Maximum number of steps reached.
 Calculation of REVERSE path complete.
 Reaction path calculation complete.
 
 Energies reported relative to the TS energy of        -751.143396
 --------------------------------------------------------------------------
    Summary of reaction path following
 --------------------------------------------------------------------------
                        Energy    RxCoord
   1                   -0.01747  -6.56190
   2                   -0.01731  -6.49628
   3                   -0.01715  -6.43065
   4                   -0.01699  -6.36503
   5                   -0.01682  -6.29941
   6                   -0.01665  -6.23379
   7                   -0.01648  -6.16817
   8                   -0.01630  -6.10254
   9                   -0.01612  -6.03692
  10                   -0.01594  -5.97130
  11                   -0.01576  -5.90568
  12                   -0.01557  -5.84006
  13                   -0.01538  -5.77443
  14                   -0.01518  -5.70881
  15                   -0.01498  -5.64319
  16                   -0.01478  -5.57757
  17                   -0.01458  -5.51195
  18                   -0.01437  -5.44632
  19                   -0.01416  -5.38070
  20                   -0.01394  -5.31508
  21                   -0.01373  -5.24946
  22                   -0.01351  -5.18384
  23                   -0.01328  -5.11821
  24                   -0.01305  -5.05259
  25                   -0.01282  -4.98697
  26                   -0.01259  -4.92135
  27                   -0.01236  -4.85573
  28                   -0.01212  -4.79011
  29                   -0.01188  -4.72450
  30                   -0.01164  -4.65889
  31                   -0.01140  -4.59328
  32                   -0.01116  -4.52769
  33                   -0.01092  -4.46209
  34                   -0.01069  -4.39649
  35                   -0.01047  -4.33088
  36                   -0.01026  -4.26527
  37                   -0.01006  -4.19967
  38                   -0.00988  -4.13406
  39                   -0.00970  -4.06845
  40                   -0.00953  -4.00283
  41                   -0.00936  -3.93722
  42                   -0.00920  -3.87160
  43                   -0.00904  -3.80598
  44                   -0.00888  -3.74036
  45                   -0.00872  -3.67474
  46                   -0.00856  -3.60912
  47                   -0.00839  -3.54350
  48                   -0.00823  -3.47788
  49                   -0.00807  -3.41226
  50                   -0.00790  -3.34664
  51                   -0.00773  -3.28101
  52                   -0.00756  -3.21539
  53                   -0.00739  -3.14977
  54                   -0.00722  -3.08415
  55                   -0.00704  -3.01853
  56                   -0.00687  -2.95291
  57                   -0.00669  -2.88729
  58                   -0.00651  -2.82167
  59                   -0.00633  -2.75604
  60                   -0.00615  -2.69042
  61                   -0.00597  -2.62480
  62                   -0.00579  -2.55918
  63                   -0.00560  -2.49356
  64                   -0.00542  -2.42794
  65                   -0.00523  -2.36232
  66                   -0.00504  -2.29670
  67                   -0.00485  -2.23108
  68                   -0.00466  -2.16546
  69                   -0.00447  -2.09983
  70                   -0.00428  -2.03421
  71                   -0.00409  -1.96859
  72                   -0.00390  -1.90297
  73                   -0.00370  -1.83735
  74                   -0.00351  -1.77173
  75                   -0.00332  -1.70611
  76                   -0.00312  -1.64049
  77                   -0.00293  -1.57486
  78                   -0.00274  -1.50924
  79                   -0.00256  -1.44362
  80                   -0.00237  -1.37800
  81                   -0.00219  -1.31238
  82                   -0.00201  -1.24676
  83                   -0.00183  -1.18114
  84                   -0.00166  -1.11552
  85                   -0.00149  -1.04990
  86                   -0.00133  -0.98427
  87                   -0.00118  -0.91865
  88                   -0.00103  -0.85303
  89                   -0.00089  -0.78741
  90                   -0.00076  -0.72179
  91                   -0.00063  -0.65617
  92                   -0.00052  -0.59055
  93                   -0.00041  -0.52493
  94                   -0.00032  -0.45931
  95                   -0.00024  -0.39369
  96                   -0.00017  -0.32807
  97                   -0.00011  -0.26245
  98                   -0.00006  -0.19683
  99                   -0.00003  -0.13122
 100                   -0.00001  -0.06561
 101                    0.00000   0.00000
 102                   -0.00001   0.06551
 103                   -0.00003   0.13112
 104                   -0.00007   0.19673
 105                   -0.00012   0.26235
 106                   -0.00018   0.32797
 107                   -0.00027   0.39359
 108                   -0.00037   0.45921
 109                   -0.00049   0.52483
 110                   -0.00062   0.59045
 111                   -0.00078   0.65606
 112                   -0.00095   0.72168
 113                   -0.00115   0.78730
 114                   -0.00137   0.85292
 115                   -0.00161   0.91854
 116                   -0.00187   0.98416
 117                   -0.00216   1.04978
 118                   -0.00248   1.11540
 119                   -0.00282   1.18102
 120                   -0.00319   1.24664
 121                   -0.00359   1.31226
 122                   -0.00402   1.37788
 123                   -0.00448   1.44349
 124                   -0.00496   1.50911
 125                   -0.00547   1.57473
 126                   -0.00601   1.64035
 127                   -0.00658   1.70597
 128                   -0.00717   1.77159
 129                   -0.00779   1.83721
 130                   -0.00842   1.90283
 131                   -0.00908   1.96845
 132                   -0.00976   2.03407
 133                   -0.01046   2.09969
 134                   -0.01117   2.16531
 135                   -0.01189   2.23093
 136                   -0.01262   2.29655
 137                   -0.01336   2.36217
 138                   -0.01409   2.42779
 139                   -0.01483   2.49341
 140                   -0.01556   2.55903
 141                   -0.01628   2.62465
 142                   -0.01699   2.69028
 143                   -0.01769   2.75590
 144                   -0.01836   2.82152
 145                   -0.01902   2.88714
 146                   -0.01966   2.95276
 147                   -0.02027   3.01839
 148                   -0.02086   3.08401
 149                   -0.02142   3.14963
 150                   -0.02196   3.21525
 151                   -0.02246   3.28087
 152                   -0.02294   3.34650
 153                   -0.02340   3.41212
 154                   -0.02382   3.47774
 155                   -0.02422   3.54336
 156                   -0.02459   3.60898
 157                   -0.02493   3.67460
 158                   -0.02525   3.74022
 159                   -0.02554   3.80584
 160                   -0.02582   3.87145
 161                   -0.02607   3.93707
 162                   -0.02630   4.00268
 163                   -0.02651   4.06830
 164                   -0.02670   4.13391
 165                   -0.02688   4.19952
 166                   -0.02705   4.26513
 167                   -0.02720   4.33075
 168                   -0.02734   4.39636
 169                   -0.02747   4.46198
 170                   -0.02759   4.52760
 171                   -0.02770   4.59322
 172                   -0.02780   4.65884
 173                   -0.02789   4.72447
 174                   -0.02797   4.79009
 175                   -0.02805   4.85571
 176                   -0.02811   4.92134
 177                   -0.02817   4.98696
 178                   -0.02822   5.05258
 179                   -0.02826   5.11821
 180                   -0.02829   5.18383
 181                   -0.02832   5.24946
 182                   -0.02834   5.31508
 183                   -0.02836   5.38070
 184                   -0.02837   5.44631
 --------------------------------------------------------------------------
 
 Total number of points:                  183
 Total number of gradient calculations:   184
 Total number of Hessian calculations:    184
 IRC-IRC-IRC-IRC-IRC-IRC-IRC-IRC-IRC-IRC-IRC-IRC-IRC-IRC-IRC-IRC-IRC-IRC
 Leave Link  123 at Sun Apr 14 22:49:56 2024, MaxMem=   104857600 cpu:               0.0 elap:               0.0
 (Enter /opt/g16/l202.exe)
                          Input orientation:                          
 ---------------------------------------------------------------------
 Center     Atomic      Atomic             Coordinates (Angstroms)
 Number     Number       Type             X           Y           Z
 ---------------------------------------------------------------------
      1          1           0        1.153488   -0.792934    2.283598
      2          1           0        2.613397   -0.859677    0.305761
      3          1           0        0.438965   -2.004742    0.268331
      4          1           0        0.022372    0.661968   -0.058570
      5         14           0        1.222008   -0.875997    0.808432
      6         17           0       -1.099766    0.787272   -0.727588
 ---------------------------------------------------------------------
                    Distance matrix (angstroms):
                    1          2          3          4          5
     1  H    0.000000
     2  H    2.459193   0.000000
     3  H    2.457708   2.457789   0.000000
     4  H    2.980255   3.026805   2.718778   0.000000
     5  Si   1.479091   1.479495   1.476120   2.134515   0.000000
     6  Cl   4.079393   4.191399   3.339893   1.312433   3.242909
                    6
     6  Cl   0.000000
 Symmetry turned off by external request.
 Stoichiometry    ClH4Si(2)
 Framework group  C1[X(ClH4Si)]
 Deg. of freedom    12
 Full point group                 C1      NOp   1
 Rotational constants (GHZ):          85.1691082           2.7971066           2.7946162
 Leave Link  202 at Sun Apr 14 22:49:56 2024, MaxMem=   104857600 cpu:               0.0 elap:               0.0
 (Enter /opt/g16/l601.exe)
 Leave Link  601 at Sun Apr 14 22:49:56 2024, MaxMem=   104857600 cpu:               0.0 elap:               0.0
 (Enter /opt/g16/l9999.exe)

 This type of calculation cannot be archived.


 YOU KNOW YOU'VE SPOKEN TOO LONG WHEN THE AUDIENCE STOPS LOOKING AT
 THEIR WATCHES AND STARTS SHAKING THEM.
 Job cpu time:       0 days  0 hours  0 minutes 34.6 seconds.
 Elapsed time:       0 days  0 hours  2 minutes 52.4 seconds.
 File lengths (MBytes):  RWF=      6 Int=      0 D2E=      0 Chk=      2 Scr=      1
 Normal termination of Gaussian 16 at Sun Apr 14 22:49:56 2024.
