 Entering Gaussian System, Link 0=g16
 Initial command:
 /opt/g16/l1.exe "/home/jh-li/scratch/g16/Gau-277510.inp" -scrdir="/home/jh-li/scratch/g16/"
 Entering Link 1 = /opt/g16/l1.exe PID=    277513.
  
 Copyright (c) 1988-2019, Gaussian, Inc.  All Rights Reserved.
  
 This is part of the Gaussian(R) 16 program.  It is based on
 the Gaussian(R) 09 system (copyright 2009, Gaussian, Inc.),
 the Gaussian(R) 03 system (copyright 2003, Gaussian, Inc.),
 the Gaussian(R) 98 system (copyright 1998, Gaussian, Inc.),
 the Gaussian(R) 94 system (copyright 1995, Gaussian, Inc.),
 the Gaussian 92(TM) system (copyright 1992, Gaussian, Inc.),
 the Gaussian 90(TM) system (copyright 1990, Gaussian, Inc.),
 the Gaussian 88(TM) system (copyright 1988, Gaussian, Inc.),
 the Gaussian 86(TM) system (copyright 1986, Carnegie Mellon
 University), and the Gaussian 82(TM) system (copyright 1983,
 Carnegie Mellon University). Gaussian is a federally registered
 trademark of Gaussian, Inc.
  
 This software contains proprietary and confidential information,
 including trade secrets, belonging to Gaussian, Inc.
  
 This software is provided under written license and may be
 used, copied, transmitted, or stored only in accord with that
 written license.
  
 The following legend is applicable only to US Government
 contracts under FAR:
  
                    RESTRICTED RIGHTS LEGEND
  
 Use, reproduction and disclosure by the US Government is
 subject to restrictions as set forth in subparagraphs (a)
 and (c) of the Commercial Computer Software - Restricted
 Rights clause in FAR 52.227-19.
  
 Gaussian, Inc.
 340 Quinnipiac St., Bldg. 40, Wallingford CT 06492
  
  
 ---------------------------------------------------------------
 Warning -- This program may not be used in any manner that
 competes with the business of Gaussian, Inc. or will provide
 assistance to any competitor of Gaussian, Inc.  The licensee
 of this program is prohibited from giving any competitor of
 Gaussian, Inc. access to this program.  By using this program,
 the user acknowledges that Gaussian, Inc. is engaged in the
 business of creating and licensing software in the field of
 computational chemistry and represents and warrants to the
 licensee that it is not a competitor of Gaussian, Inc. and that
 it will not use this program in any manner prohibited above.
 ---------------------------------------------------------------
  

 Cite this work as:
 Gaussian 16, Revision C.01,
 M. J. Frisch, G. W. Trucks, H. B. Schlegel, G. E. Scuseria, 
 M. A. Robb, J. R. Cheeseman, G. Scalmani, V. Barone, 
 G. A. Petersson, H. Nakatsuji, X. Li, M. Caricato, A. V. Marenich, 
 J. Bloino, B. G. Janesko, R. Gomperts, B. Mennucci, H. P. Hratchian, 
 J. V. Ortiz, A. F. Izmaylov, J. L. Sonnenberg, D. Williams-Young, 
 F. Ding, F. Lipparini, F. Egidi, J. Goings, B. Peng, A. Petrone, 
 T. Henderson, D. Ranasinghe, V. G. Zakrzewski, J. Gao, N. Rega, 
 G. Zheng, W. Liang, M. Hada, M. Ehara, K. Toyota, R. Fukuda, 
 J. Hasegawa, M. Ishida, T. Nakajima, Y. Honda, O. Kitao, H. Nakai, 
 T. Vreven, K. Throssell, J. A. Montgomery, Jr., J. E. Peralta, 
 F. Ogliaro, M. J. Bearpark, J. J. Heyd, E. N. Brothers, K. N. Kudin, 
 V. N. Staroverov, T. A. Keith, R. Kobayashi, J. Normand, 
 K. Raghavachari, A. P. Rendell, J. C. Burant, S. S. Iyengar, 
 J. Tomasi, M. Cossi, J. M. Millam, M. Klene, C. Adamo, R. Cammi, 
 J. W. Ochterski, R. L. Martin, K. Morokuma, O. Farkas, 
 J. B. Foresman, and D. J. Fox, Gaussian, Inc., Wallingford CT, 2019.
 
 ******************************************
 Gaussian 16:  ES64L-G16RevC.01  3-Jul-2019
                14-Apr-2024 
 ******************************************
 %nproc=1
 Will use up to    1 processors via shared memory.
 %oldchk=ts3-opt-freq.chk
 Copying data from "ts3-opt-freq.chk" to current chk file "/home/jh-li/scratch/g16/Gau-277513.chk"
 IOpt=  2 FromEx=T IUOpen= 4 IOptOp= 5 NList=   0 IFRang= 0 IUIn= 4 IUOut= 2.
 ----------------------------------------------------------------------
 #p external="python3 -u ../pes/h4sicl_pes.py" irc=(calcall,stepsize=3,
 maxpoint=100) geom=allcheck
 ----------------------------------------------------------------------
 1/6=10,10=4,18=10,26=1,29=7,38=1,39=3,42=100,44=3,71=1,172=1/1,23;
 2/12=2,29=1,40=1/2;
 3/11=9,14=-4,25=1,30=1,41=9900000,43=2,71=2,140=1/1;
 4/20=17,22=1002,24=3,113=1,114=1/2;
 6/7=2,8=2,9=2,10=2,18=1/1;
 7/25=1,44=-1/16;
 1/6=10,10=4,18=10,26=1,39=3,42=100,44=3,71=1/23(2);
 2/29=1/2;
 99/5=20/99;
 2/29=1/2;
 3/11=9,14=-2,25=1,30=1,41=9900000,43=2,71=2,140=1/1;
 4/16=2,20=17,22=1002,24=3,113=1,114=1/2;
 7/25=1,44=-1/16;
 1/6=10,10=4,18=10,26=1,39=3,42=100,44=3,71=1/23(-4);
 2/29=1/2;
 6/7=2,8=2,9=2,10=2,18=1/1;
 99/5=20/99;
 Leave Link    1 at Sun Apr 14 23:00:26 2024, MaxMem=   104857600 cpu:               0.0 elap:               0.0
 (Enter /opt/g16/l101.exe)
 Structure from the checkpoint file:  "/home/jh-li/scratch/g16/Gau-277513.chk"
 -------------------
 Title Card Required
 -------------------
 Charge =  0 Multiplicity = 2
 Redundant internal coordinates found in file.  (old form).
 H,0,1.2844175114,-0.9843835062,-1.2170583463
 H,0,1.6823774737,1.1804965255,-0.0003008574
 H,0,1.2843594699,-0.9835239327,1.2179333491
 H,0,2.1622605127,2.2238505617,-0.0006280585
 Si,0,0.9375974914,-0.2254460978,0.0001613423
 Cl,0,-1.079605459,0.1585914495,-0.0000394291
 Recover connectivity data from disk.
 ITRead=  0  0  0  0  0  0
 MicOpt= -1 -1 -1 -1 -1 -1
 NAtoms=      6 NQM=        6 NQMF=       0 NMMI=      0 NMMIF=      0
                NMic=       0 NMicF=      0.
                    Isotopes and Nuclear Properties:
 (Nuclear quadrupole moments (NQMom) in fm**2, nuclear magnetic moments (NMagM)
  in nuclear magnetons)

  Atom         1           2           3           4           5           6
 IAtWgt=           1           1           1           1          28          35
 AtmWgt=   1.0078250   1.0078250   1.0078250   1.0078250  27.9769284  34.9688527
 NucSpn=           1           1           1           1           0           3
 AtZEff=   1.0000000   1.0000000   1.0000000   1.0000000  12.2500000  14.2400000
 NQMom=    0.0000000   0.0000000   0.0000000   0.0000000   0.0000000  -8.1650000
 NMagM=    2.7928460   2.7928460   2.7928460   2.7928460   0.0000000   0.8218740
 AtZNuc=   1.0000000   1.0000000   1.0000000   1.0000000  14.0000000  17.0000000
 Leave Link  101 at Sun Apr 14 23:00:26 2024, MaxMem=   104857600 cpu:               0.2 elap:               0.2
 (Enter /opt/g16/l123.exe)
 IRC-IRC-IRC-IRC-IRC-IRC-IRC-IRC-IRC-IRC-IRC-IRC-IRC-IRC-IRC-IRC-IRC-IRC
 ------------------------------------------------------------------------
 INPUT DATA FOR L123
 ------------------------------------------------------------------------
 GENERAL PARAMETERS:
 Follow reaction path in both directions.
 Maximum points per path      = 100
 Step size                    =   0.030 bohr
 Integration scheme           = HPC                                 
    Redo corrector integration= Yes                                 
    DWI Weight Power          =  2
    DWI will use Hessian update vectors when possible.
    Max correction cycles     =  10
 Initial Hessian              = CalcFC
 Hessian evaluation           = Analytic at all predictor steps
                              = Update at all corrector steps
 Hessian updating method      = Bofill                              
 ------------------------------------------------------------------------
 IRC-IRC-IRC-IRC-IRC-IRC-IRC-IRC-IRC-IRC-IRC-IRC-IRC-IRC-IRC-IRC-IRC-IRC
 Leave Link  123 at Sun Apr 14 23:00:26 2024, MaxMem=   104857600 cpu:               0.0 elap:               0.0
 (Enter /opt/g16/l202.exe)
                          Input orientation:                          
 ---------------------------------------------------------------------
 Center     Atomic      Atomic             Coordinates (Angstroms)
 Number     Number       Type             X           Y           Z
 ---------------------------------------------------------------------
      1          1           0        1.284418   -0.984384   -1.217058
      2          1           0        1.682377    1.180497   -0.000301
      3          1           0        1.284359   -0.983524    1.217933
      4          1           0        2.162261    2.223851   -0.000628
      5         14           0        0.937597   -0.225446    0.000161
      6         17           0       -1.079605    0.158591   -0.000039
 ---------------------------------------------------------------------
                    Distance matrix (angstroms):
                    1          2          3          4          5
     1  H    0.000000
     2  H    2.515070   0.000000
     3  H    2.434992   2.515054   0.000000
     4  H    3.541621   1.148423   3.541589   0.000000
     5  Si   1.475769   1.591029   1.475769   2.738404   0.000000
     6  Cl   2.894155   2.944969   2.894169   3.843825   2.053434
                    6
     6  Cl   0.000000
 Symmetry turned off by external request.
 Stoichiometry    ClH4Si(2)
 Framework group  C1[X(ClH4Si)]
 Deg. of freedom    12
 Full point group                 C1      NOp   1
 Rotational constants (GHZ):          39.6060088           6.3402382           5.8429128
 Leave Link  202 at Sun Apr 14 23:00:26 2024, MaxMem=   104857600 cpu:               0.0 elap:               0.0
 (Enter /opt/g16/l301.exe)
 Standard basis: STO-3G (5D, 7F)
 Ernie: Thresh=  0.10000D-02 Tol=  0.10000D-05 Strict=F.
    22 basis functions,    66 primitive gaussians,    22 cartesian basis functions
    18 alpha electrons       17 beta electrons
       nuclear repulsion energy        91.7449031710 Hartrees.
 IExCor=    0 DFT=F Ex=HF Corr=None ExCW=0 ScaHFX=  1.000000
 ScaDFX=  1.000000  1.000000  1.000000  1.000000 ScalE2=  1.000000  1.000000
 IRadAn=      5 IRanWt=     -1 IRanGd=            0 ICorTp=0 IEmpDi=  4
 NAtoms=    6 NActive=    6 NUniq=    6 SFac= 1.00D+00 NAtFMM=   60 NAOKFM=F Big=F
 Integral buffers will be    131072 words long.
 Raffenetti 2 integral format.
 Two-electron integral symmetry is turned off.
 Leave Link  301 at Sun Apr 14 23:00:26 2024, MaxMem=   104857600 cpu:               0.0 elap:               0.0
 (Enter /opt/g16/l402.exe)
 External calculation of energy, first and second derivatives.
 Running external command "python3 -u ../pes/h4sicl_pes.py R"
         input file       "/home/jh-li/scratch/g16/Gau-277513.EIn"
         output file      "/home/jh-li/scratch/g16/Gau-277513.EOu"
         message file     "/home/jh-li/scratch/g16/Gau-277513.EMs"
         fchk file        "/home/jh-li/scratch/g16/Gau-277513.EFC"
         mat. el file     "/home/jh-li/scratch/g16/Gau-277513.EUF"
 initialization done
 Recovered energy= -751.163036132     dipole=      0.000000000000      0.000000000000      0.000000000000
 NRF= 0 NRA=   0 NVA=   0 HaveQM=F NVQ=       0
 Convergence limit is  0.750E-04 MaxStp= 10000 StMxLn= 3.00D-04 StpMin= 1.00D-06.
 Convergence criteria             0.00011250 0.00007500 0.00045000 0.00030000
  Step  NS  ND Rises OKQ   Scale  Max. Force  RMS Force Max. Disp.  RMS Disp.     Energy   Flag
     1   0   0   F    T  1.00D+00 0.00000000 0.00000000 0.00000000 0.00000000 -751.1630361 ====
 Running external command "python3 -u ../pes/h4sicl_pes.py R"
         input file       "/home/jh-li/scratch/g16/Gau-277513.EIn"
         output file      "/home/jh-li/scratch/g16/Gau-277513.EOu"
         message file     "/home/jh-li/scratch/g16/Gau-277513.EMs"
         fchk file        "/home/jh-li/scratch/g16/Gau-277513.EFC"
         mat. el file     "/home/jh-li/scratch/g16/Gau-277513.EUF"
 initialization done
 Recovered energy= -751.163036132     dipole=      0.000000000000      0.000000000000      0.000000000000
 Energy=    -751.163036     NIter=   0.
 Dipole moment=       0.000000       0.000000       0.000000
 Leave Link  402 at Sun Apr 14 23:00:27 2024, MaxMem=   104857600 cpu:               0.0 elap:               0.8
 (Enter /opt/g16/l601.exe)
 Leave Link  601 at Sun Apr 14 23:00:27 2024, MaxMem=   104857600 cpu:               0.0 elap:               0.0
 (Enter /opt/g16/l716.exe)
 Dipole        = 0.00000000D+00 0.00000000D+00 0.00000000D+00
 -------------------------------------------------------------------
 Center     Atomic                   Forces (Hartrees/Bohr)
 Number     Number              X              Y              Z
 -------------------------------------------------------------------
      1        1          -0.000000634   -0.000002016   -0.000003010
      2        1           0.000039299    0.000111579   -0.000000219
      3        1          -0.000001416   -0.000002210    0.000003098
      4        1          -0.000014664   -0.000025935   -0.000000024
      5       14          -0.000015769   -0.000077173   -0.000000239
      6       17          -0.000005125    0.000002533    0.000000393
 -------------------------------------------------------------------
 Cartesian Forces:  Max     0.000111579 RMS     0.000034278
 Force constants in Cartesian coordinates: 
                1             2             3             4             5 
      1  0.308458D-01
      2 -0.212732D-01  0.630130D-01
      3 -0.309345D-01  0.722156D-01  0.136722D+00
      4  0.395516D-02  0.263676D-02  0.172813D-02  0.246374D-01
      5 -0.240588D-02 -0.129503D-02  0.222179D-02 -0.150367D-01 -0.727054D-02
      6 -0.333292D-02 -0.827107D-02  0.162402D-02  0.446892D-05  0.963424D-05
      7  0.388338D-02 -0.909266D-03  0.192464D-02  0.395496D-02 -0.240372D-02
      8 -0.910250D-03  0.647944D-02 -0.625688D-02  0.263477D-02 -0.129150D-02
      9 -0.192341D-02  0.624732D-02 -0.708279D-02 -0.172994D-02 -0.221989D-02
     10 -0.494845D-03 -0.116232D-02 -0.804421D-03  0.443841D-02  0.222644D-01
     11  0.394380D-03 -0.101201D-02 -0.137360D-02  0.244010D-01  0.414528D-01
     12  0.349769D-03  0.113561D-02 -0.215135D-03 -0.766664D-05 -0.149537D-04
     13 -0.303952D-01  0.192484D-01  0.280897D-01 -0.281836D-01 -0.672106D-02
     14  0.162663D-01 -0.689935D-01 -0.669947D-01 -0.685508D-02 -0.344463D-01
     15  0.262417D-01 -0.701640D-01 -0.133981D+00  0.267912D-05  0.349562D-05
     16 -0.779296D-02  0.146017D-02 -0.509958D-05 -0.879364D-02  0.430985D-02
     17  0.792977D-02  0.180724D-02  0.183564D-03 -0.777759D-02  0.286491D-02
     18  0.959941D-02 -0.116744D-02  0.292877D-02  0.233180D-05  0.000000D+00
                6             7             8             9            10 
      6  0.263390D-01
      7  0.333470D-02  0.308424D-01
      8  0.827361D-02 -0.212476D-01  0.629114D-01
      9  0.161972D-02  0.309442D-01 -0.721645D-01  0.136827D+00
     10 -0.715472D-05 -0.494793D-03 -0.116147D-02  0.805195D-03  0.214291D-02
     11 -0.153295D-04  0.394164D-03 -0.101140D-02  0.137409D-02 -0.144261D-03
     12 -0.629122D-02 -0.350044D-03 -0.113522D-02 -0.215208D-03  0.000000D+00
     13  0.273818D-05 -0.303926D-01  0.192252D-01 -0.280981D-01 -0.676472D-02
     14  0.352905D-05  0.162447D-01 -0.688966D-01  0.669496D-01 -0.212401D-01
     15 -0.257340D-01 -0.262480D-01  0.701187D-01 -0.134081D+00  0.679466D-05
     16 -0.183405D-05 -0.779206D-02  0.145990D-02  0.355476D-05  0.116876D-02
     17  0.000000D+00  0.792279D-02  0.180793D-02 -0.182446D-03  0.144445D-02
     18  0.244635D-02 -0.960551D-02  0.116826D-02  0.292759D-02  0.000000D+00
               11            12            13            14            15 
     11  0.224253D-02
     12  0.000000D+00  0.243306D-02
     13 -0.237140D-01  0.743504D-05  0.260388D+00
     14 -0.417169D-01  0.146933D-04 -0.341475D-01  0.238680D+00
     15  0.150069D-04  0.478814D-02  0.119554D-04  0.246304D-04  0.310024D+00
     16 -0.133337D-02  0.000000D+00 -0.164663D+00  0.297269D-01 -0.150795D-04
     17  0.331721D-04  0.000000D+00  0.261043D-01 -0.246270D-01  0.214874D-05
     18  0.000000D+00 -0.500662D-03 -0.137695D-04  0.218686D-05 -0.210095D-01
               16            17            18 
     16  0.187877D+00
     17 -0.356249D-01  0.181134D-01
     18  0.179734D-04 -0.274972D-05  0.132060D-01
 Leave Link  716 at Sun Apr 14 23:00:27 2024, MaxMem=   104857600 cpu:               0.0 elap:               0.0
 (Enter /opt/g16/l123.exe)
 IRC-IRC-IRC-IRC-IRC-IRC-IRC-IRC-IRC-IRC-IRC-IRC-IRC-IRC-IRC-IRC-IRC-IRC
          ******** Start new reaction path calculation ********
 Current Structure is TS -> form Hessian eigenvectors.
                            Diagonalizing Hessian.
 Supplied step size of   0.0300 bohr.
    Integration on MW PES will use step size of   0.0301 sqrt(amu)*bohr.
 Point Number:   0          Path Number:   1
 Calculating another point on the path.
 Point Number  1 in FORWARD path direction.
 Using LQA Reaction Path Following.
 IRC-IRC-IRC-IRC-IRC-IRC-IRC-IRC-IRC-IRC-IRC-IRC-IRC-IRC-IRC-IRC-IRC-IRC
 Leave Link  123 at Sun Apr 14 23:00:27 2024, MaxMem=   104857600 cpu:               0.0 elap:               0.0
 (Enter /opt/g16/l202.exe)
                          Input orientation:                          
 ---------------------------------------------------------------------
 Center     Atomic      Atomic             Coordinates (Angstroms)
 Number     Number       Type             X           Y           Z
 ---------------------------------------------------------------------
      1          1           0        1.359922   -0.994627   -1.216845
      2          1           0        1.752939    1.159348   -0.000344
      3          1           0        1.359864   -0.993768    1.217628
      4          1           0        2.242168    2.223048   -0.000677
      5         14           0        1.013129   -0.235630    0.000115
      6         17           0       -1.004084    0.148341   -0.000085
 ---------------------------------------------------------------------
                    Distance matrix (angstroms):
                    1          2          3          4          5
     1  H    0.000000
     2  H    2.504785   0.000000
     3  H    2.434474   2.504769   0.000000
     4  H    3.551177   1.170813   3.551145   0.000000
     5  Si   1.475579   1.579014   1.475580   2.748752   0.000000
     6  Cl   2.894029   2.936547   2.894044   3.852605   2.053432
                    6
     6  Cl   0.000000
 Symmetry turned off by external request.
 Stoichiometry    ClH4Si(2)
 Framework group  C1[X(ClH4Si)]
 Deg. of freedom    12
 Full point group                 C1      NOp   1
 Rotational constants (GHZ):          39.5560981           6.3402507           5.8416644
 Leave Link  202 at Sun Apr 14 23:00:27 2024, MaxMem=   104857600 cpu:               0.0 elap:               0.0
 (Enter /opt/g16/l301.exe)
 Standard basis: STO-3G (5D, 7F)
 Ernie: Thresh=  0.10000D-02 Tol=  0.10000D-05 Strict=F.
    22 basis functions,    66 primitive gaussians,    22 cartesian basis functions
    18 alpha electrons       17 beta electrons
       nuclear repulsion energy        91.7673699394 Hartrees.
 IExCor=    0 DFT=F Ex=HF Corr=None ExCW=0 ScaHFX=  1.000000
 ScaDFX=  1.000000  1.000000  1.000000  1.000000 ScalE2=  1.000000  1.000000
 IRadAn=      5 IRanWt=     -1 IRanGd=            0 ICorTp=0 IEmpDi=  4
 NAtoms=    6 NActive=    6 NUniq=    6 SFac= 1.00D+00 NAtFMM=   60 NAOKFM=F Big=F
 Integral buffers will be    131072 words long.
 Raffenetti 2 integral format.
 Two-electron integral symmetry is turned off.
 Leave Link  301 at Sun Apr 14 23:00:27 2024, MaxMem=   104857600 cpu:               0.0 elap:               0.0
 (Enter /opt/g16/l402.exe)
 External calculation of energy, first and second derivatives.
 Running external command "python3 -u ../pes/h4sicl_pes.py R"
         input file       "/home/jh-li/scratch/g16/Gau-277513.EIn"
         output file      "/home/jh-li/scratch/g16/Gau-277513.EOu"
         message file     "/home/jh-li/scratch/g16/Gau-277513.EMs"
         fchk file        "/home/jh-li/scratch/g16/Gau-277513.EFC"
         mat. el file     "/home/jh-li/scratch/g16/Gau-277513.EUF"
 initialization done
 Recovered energy= -751.163058548     dipole=      0.000000000000      0.000000000000      0.000000000000
 NRF= 0 NRA=   0 NVA=   0 HaveQM=F NVQ=       0
 Convergence limit is  0.750E-04 MaxStp= 10000 StMxLn= 3.00D-04 StpMin= 1.00D-06.
 Convergence criteria             0.00011250 0.00007500 0.00045000 0.00030000
  Step  NS  ND Rises OKQ   Scale  Max. Force  RMS Force Max. Disp.  RMS Disp.     Energy   Flag
     1   0   0   F    T  1.00D+00 0.00000000 0.00000000 0.00000000 0.00000000 -751.1630585 ====
 Running external command "python3 -u ../pes/h4sicl_pes.py R"
         input file       "/home/jh-li/scratch/g16/Gau-277513.EIn"
         output file      "/home/jh-li/scratch/g16/Gau-277513.EOu"
         message file     "/home/jh-li/scratch/g16/Gau-277513.EMs"
         fchk file        "/home/jh-li/scratch/g16/Gau-277513.EFC"
         mat. el file     "/home/jh-li/scratch/g16/Gau-277513.EUF"
 initialization done
 Recovered energy= -751.163058548     dipole=      0.000000000000      0.000000000000      0.000000000000
 Energy=    -751.163059     NIter=   0.
 Dipole moment=       0.000000       0.000000       0.000000
 Leave Link  402 at Sun Apr 14 23:00:28 2024, MaxMem=   104857600 cpu:               0.1 elap:               0.8
 (Enter /opt/g16/l716.exe)
 Dipole        = 0.00000000D+00 0.00000000D+00 0.00000000D+00
 -------------------------------------------------------------------
 Center     Atomic                   Forces (Hartrees/Bohr)
 Number     Number              X              Y              Z
 -------------------------------------------------------------------
      1        1          -0.000003465   -0.000009353    0.000021275
      2        1          -0.000440331   -0.000961798    0.000000108
      3        1          -0.000004251   -0.000009574   -0.000021184
      4        1           0.000470605    0.001018990   -0.000000351
      5       14          -0.000025236   -0.000009988   -0.000000250
      6       17           0.000004652   -0.000020980    0.000000400
 -------------------------------------------------------------------
 Cartesian Forces:  Max     0.001018990 RMS     0.000363705
 Force constants in Cartesian coordinates: 
                1             2             3             4             5 
      1  0.309597D-01
      2 -0.211758D-01  0.634592D-01
      3 -0.309212D-01  0.723396D-01  0.136978D+00
      4  0.400350D-02  0.243979D-02  0.164110D-02  0.267031D-01
      5 -0.251389D-02 -0.172693D-02  0.195112D-02 -0.965268D-02  0.268679D-02
      6 -0.344032D-02 -0.853377D-02  0.164246D-02  0.271573D-05  0.620945D-05
      7  0.388478D-02 -0.900453D-03  0.195031D-02  0.400331D-02 -0.251165D-02
      8 -0.901456D-03  0.641527D-02 -0.624411D-02  0.243786D-02 -0.172299D-02
      9 -0.194908D-02  0.623452D-02 -0.719078D-02 -0.164277D-02 -0.194891D-02
     10 -0.419025D-03 -0.101546D-02 -0.735340D-03  0.489898D-02  0.211864D-01
     11  0.430558D-03 -0.848343D-03 -0.124699D-02  0.232302D-01  0.401851D-01
     12  0.340974D-03  0.104660D-02 -0.216989D-03 -0.729496D-05 -0.142495D-04
     13 -0.305702D-01  0.191365D-01  0.280881D-01 -0.303684D-01 -0.103679D-01
     14  0.162680D-01 -0.691186D-01 -0.669860D-01 -0.104826D-01 -0.423962D-01
     15  0.263497D-01 -0.698698D-01 -0.134167D+00  0.386770D-05  0.594211D-05
     16 -0.785734D-02  0.151589D-02 -0.244439D-04 -0.923274D-02  0.386563D-02
     17  0.789372D-02  0.181912D-02  0.182167D-03 -0.796996D-02  0.298729D-02
     18  0.961994D-02 -0.122100D-02  0.294975D-02  0.238353D-05  0.000000D+00
                6             7             8             9            10 
      6  0.257609D-01
      7  0.344217D-02  0.309563D-01
      8  0.853660D-02 -0.211502D-01  0.633574D-01
      9  0.163781D-02  0.309308D-01 -0.722886D-01  0.137083D+00
     10 -0.680636D-05 -0.418976D-03 -0.101468D-02  0.736014D-03  0.137061D-02
     11 -0.146124D-04  0.430341D-03 -0.847787D-03  0.124736D-02 -0.285956D-03
     12 -0.532803D-02 -0.341268D-03 -0.104632D-02 -0.217045D-03  0.000000D+00
     13  0.393201D-05 -0.305676D-01  0.191133D-01 -0.280963D-01 -0.662662D-02
     14  0.597219D-05  0.162464D-01 -0.690220D-01  0.669409D-01 -0.202435D-01
     15 -0.262040D-01 -0.263561D-01  0.698245D-01 -0.134266D+00  0.647893D-05
     16 -0.169827D-05 -0.785643D-02  0.151563D-02  0.228579D-04  0.119092D-02
     17  0.000000D+00  0.788674D-02  0.181985D-02 -0.181044D-03  0.137417D-02
     18  0.249426D-02 -0.962602D-02  0.122183D-02  0.294853D-02  0.000000D+00
               11            12            13            14            15 
     11  0.118489D-02
     12  0.000000D+00  0.170424D-02
     13 -0.227956D-01  0.714549D-05  0.262383D+00
     14 -0.397771D-01  0.139905D-04 -0.313325D-01  0.245329D+00
     15  0.142968D-04  0.451162D-02  0.109841D-04  0.228786D-04  0.311348D+00
     16 -0.101140D-02  0.000000D+00 -0.164261D+00  0.295401D-01 -0.149996D-04
     17  0.918351D-04  0.000000D+00  0.262408D-01 -0.250161D-01  0.221504D-05
     18  0.000000D+00 -0.454732D-03 -0.137945D-04  0.225062D-05 -0.212156D-01
               16            17            18 
     16  0.188020D+00
     17 -0.354264D-01  0.182977D-01
     18  0.179062D-04 -0.278450D-05  0.132764D-01
 Leave Link  716 at Sun Apr 14 23:00:28 2024, MaxMem=   104857600 cpu:               0.0 elap:               0.0
 (Enter /opt/g16/l123.exe)
 IRC-IRC-IRC-IRC-IRC-IRC-IRC-IRC-IRC-IRC-IRC-IRC-IRC-IRC-IRC-IRC-IRC-IRC
 Pt  1 Step number   1 out of a maximum of  10
 Using modified Bulirsch-Stoer corrector integration.
   Using distance weighted interpolants to fit PES.
 PreDWI: IReCr0= 2 IReCr1= 1 IReCr2= 1 IReCr3= 1
 Modified Bulirsch-Stoer Extrapolation Cycles:
    EPS =    0.000010000000000
    Cycle     1 NS=    48
      PEZero:  N= 2 I= 1 D=  7.84D-05 Err=  1.52D-04
    Cycle     2 NS=    64 Truncation Error =  0.000152055
      PEZero:  N= 3 I= 2 D=  7.84D-05 Err=  1.01D-04
      PEZero:  N= 3 I= 1 D=  1.57D-04 Err=  5.07D-09
    Cycle     3 NS=    96 Truncation Error =  0.000000005
 BS completed in    3 cycles and     208 integration steps.
 Maximum DWI energy   std dev =  0.000000054 at pt    46
 Maximum DWI gradient std dev =  0.014067888 at pt    40
 SUMMARY OF CORRECTOR INTEGRATION:
   Predictor End Point Energy =  -751.163059
   Old End Point Energy       =  -751.163059
   Corrected End Point Energy =  -751.163059
   Predictor End-Start Dist.  =     0.030123
   Old End-Start Dist.        =     0.030123
   New End-Start Dist.        =     0.030107
   New End-Old End Dist.      =     0.000998
 CORRECTOR INTEGRATION CONVERGENCE:
   Recorrection delta-x convergence threshold:    0.010000
   Delta-x Convergence Met
 Point Number:   1          Path Number:   1
                    CURRENT STRUCTURE
                Cartesian Coordinates (Ang):                
 ---------------------------------------------------------------------
 Center     Atomic                     Coordinates (Angstroms)
 Number     Number                        X           Y           Z
 ---------------------------------------------------------------------
      1          1                    1.359911   -0.994655   -1.216854
      2          1                    1.753038    1.159682   -0.000345
      3          1                    1.359848   -0.993797    1.217638
      4          1                    2.242312    2.223394   -0.000677
      5         14                    1.013123   -0.235651    0.000115
      6         17                   -1.004086    0.148341   -0.000085
 ---------------------------------------------------------------------
   CHANGE IN THE REACTION COORDINATE =    0.03011
   NET REACTION COORDINATE UP TO THIS POINT =    0.03011
  # OF POINTS ALONG THE PATH =   1
  # OF STEPS =   1

 Calculating another point on the path.
 Point Number  2 in FORWARD path direction.
 Using LQA Reaction Path Following.
   LQA: T_Est iteration completed in    3 iterations.
 IRC-IRC-IRC-IRC-IRC-IRC-IRC-IRC-IRC-IRC-IRC-IRC-IRC-IRC-IRC-IRC-IRC-IRC
 Leave Link  123 at Sun Apr 14 23:00:28 2024, MaxMem=   104857600 cpu:               0.0 elap:               0.0
 (Enter /opt/g16/l202.exe)
                          Input orientation:                          
 ---------------------------------------------------------------------
 Center     Atomic      Atomic             Coordinates (Angstroms)
 Number     Number       Type             X           Y           Z
 ---------------------------------------------------------------------
      1          1           0        1.359870   -0.994724   -1.216608
      2          1           0        1.748379    1.149414   -0.000342
      3          1           0        1.359803   -0.993867    1.217392
      4          1           0        2.246996    2.233530   -0.000681
      5         14           0        1.013125   -0.235631    0.000115
      6         17           0       -1.004085    0.148334   -0.000085
 ---------------------------------------------------------------------
                    Distance matrix (angstroms):
                    1          2          3          4          5
     1  H    0.000000
     2  H    2.495509   0.000000
     3  H    2.434000   2.495499   0.000000
     4  H    3.561894   1.193284   3.561867   0.000000
     5  Si   1.475421   1.568104   1.475421   2.760289   0.000000
     6  Cl   2.893923   2.928860   2.893932   3.862326   2.053428
                    6
     6  Cl   0.000000
 Symmetry turned off by external request.
 Stoichiometry    ClH4Si(2)
 Framework group  C1[X(ClH4Si)]
 Deg. of freedom    12
 Full point group                 C1      NOp   1
 Rotational constants (GHZ):          39.4771667           6.3401148           5.8396675
 Leave Link  202 at Sun Apr 14 23:00:28 2024, MaxMem=   104857600 cpu:               0.0 elap:               0.0
 (Enter /opt/g16/l301.exe)
 Standard basis: STO-3G (5D, 7F)
 Ernie: Thresh=  0.10000D-02 Tol=  0.10000D-05 Strict=F.
    22 basis functions,    66 primitive gaussians,    22 cartesian basis functions
    18 alpha electrons       17 beta electrons
       nuclear repulsion energy        91.7845476331 Hartrees.
 IExCor=    0 DFT=F Ex=HF Corr=None ExCW=0 ScaHFX=  1.000000
 ScaDFX=  1.000000  1.000000  1.000000  1.000000 ScalE2=  1.000000  1.000000
 IRadAn=      5 IRanWt=     -1 IRanGd=            0 ICorTp=0 IEmpDi=  4
 NAtoms=    6 NActive=    6 NUniq=    6 SFac= 1.00D+00 NAtFMM=   60 NAOKFM=F Big=F
 Integral buffers will be    131072 words long.
 Raffenetti 2 integral format.
 Two-electron integral symmetry is turned off.
 Leave Link  301 at Sun Apr 14 23:00:28 2024, MaxMem=   104857600 cpu:               0.1 elap:               0.1
 (Enter /opt/g16/l402.exe)
 External calculation of energy, first and second derivatives.
 Running external command "python3 -u ../pes/h4sicl_pes.py R"
         input file       "/home/jh-li/scratch/g16/Gau-277513.EIn"
         output file      "/home/jh-li/scratch/g16/Gau-277513.EOu"
         message file     "/home/jh-li/scratch/g16/Gau-277513.EMs"
         fchk file        "/home/jh-li/scratch/g16/Gau-277513.EFC"
         mat. el file     "/home/jh-li/scratch/g16/Gau-277513.EUF"
 initialization done
 Recovered energy= -751.163126951     dipole=      0.000000000000      0.000000000000      0.000000000000
 NRF= 0 NRA=   0 NVA=   0 HaveQM=F NVQ=       0
 Convergence limit is  0.750E-04 MaxStp= 10000 StMxLn= 3.00D-04 StpMin= 1.00D-06.
 Convergence criteria             0.00011250 0.00007500 0.00045000 0.00030000
  Step  NS  ND Rises OKQ   Scale  Max. Force  RMS Force Max. Disp.  RMS Disp.     Energy   Flag
     1   0   0   F    T  1.00D+00 0.00000000 0.00000000 0.00000000 0.00000000 -751.1631270 ====
 Running external command "python3 -u ../pes/h4sicl_pes.py R"
         input file       "/home/jh-li/scratch/g16/Gau-277513.EIn"
         output file      "/home/jh-li/scratch/g16/Gau-277513.EOu"
         message file     "/home/jh-li/scratch/g16/Gau-277513.EMs"
         fchk file        "/home/jh-li/scratch/g16/Gau-277513.EFC"
         mat. el file     "/home/jh-li/scratch/g16/Gau-277513.EUF"
 initialization done
 Recovered energy= -751.163126951     dipole=      0.000000000000      0.000000000000      0.000000000000
 Energy=    -751.163127     NIter=   0.
 Dipole moment=       0.000000       0.000000       0.000000
 Leave Link  402 at Sun Apr 14 23:00:29 2024, MaxMem=   104857600 cpu:               0.0 elap:               0.8
 (Enter /opt/g16/l716.exe)
 Dipole        = 0.00000000D+00 0.00000000D+00 0.00000000D+00
 -------------------------------------------------------------------
 Center     Atomic                   Forces (Hartrees/Bohr)
 Number     Number              X              Y              Z
 -------------------------------------------------------------------
      1        1          -0.000009836   -0.000020348    0.000043137
      2        1          -0.000825876   -0.001848714    0.000000524
      3        1          -0.000010297   -0.000020493   -0.000043079
      4        1           0.000897300    0.001940144   -0.000000658
      5       14          -0.000044588    0.000002381   -0.000000172
      6       17          -0.000004493   -0.000045214    0.000000246
 -------------------------------------------------------------------
 Cartesian Forces:  Max     0.001940144 RMS     0.000694340
 Force constants in Cartesian coordinates: 
                1             2             3             4             5 
      1  0.310464D-01
      2 -0.210790D-01  0.638689D-01
      3 -0.308981D-01  0.724504D-01  0.137191D+00
      4  0.404364D-02  0.225589D-02  0.153791D-02  0.288121D-01
      5 -0.261139D-02 -0.212921D-02  0.165462D-02 -0.418226D-02  0.128653D-01
      6 -0.353743D-02 -0.877112D-02  0.165621D-02  0.000000D+00  0.277073D-05
      7  0.388204D-02 -0.893184D-03  0.197005D-02  0.404346D-02 -0.260899D-02
      8 -0.894187D-03  0.635365D-02 -0.623315D-02  0.225406D-02 -0.212472D-02
      9 -0.196876D-02  0.622352D-02 -0.729003D-02 -0.153941D-02 -0.165212D-02
     10 -0.349955D-03 -0.882888D-03 -0.662511D-03  0.518765D-02  0.199560D-01
     11  0.459018D-03 -0.707868D-03 -0.111200D-02  0.218967D-01  0.384740D-01
     12  0.331745D-03  0.959828D-03 -0.219461D-03 -0.684560D-05 -0.133798D-04
     13 -0.307141D-01  0.190290D-01  0.280910D-01 -0.324553D-01 -0.139789D-01
     14  0.162709D-01 -0.692110D-01 -0.669439D-01 -0.140870D-01 -0.501783D-01
     15  0.264387D-01 -0.695992D-01 -0.134312D+00  0.498155D-05  0.827096D-05
     16 -0.790656D-02  0.157066D-02 -0.398203D-04 -0.962463D-02  0.343034D-02
     17  0.785597D-02  0.182558D-02  0.179825D-03 -0.813573D-02  0.310395D-02
     18  0.963393D-02 -0.126719D-02  0.296974D-02  0.242635D-05  0.000000D+00
                6             7             8             9            10 
      6  0.252002D-01
      7  0.353936D-02  0.310427D-01
      8  0.877415D-02 -0.210531D-01  0.637671D-01
      9  0.165123D-02  0.309069D-01 -0.723998D-01  0.137297D+00
     10 -0.642688D-05 -0.349930D-03 -0.882200D-03  0.663104D-03  0.760256D-03
     11 -0.138211D-04  0.458777D-03 -0.707438D-03  0.111231D-02 -0.277091D-03
     12 -0.446238D-02 -0.332054D-03 -0.959620D-03 -0.219491D-03  0.000000D+00
     13  0.513086D-05 -0.307112D-01  0.190054D-01 -0.280986D-01 -0.645840D-02
     14  0.848012D-05  0.162487D-01 -0.691149D-01  0.668989D-01 -0.192141D-01
     15 -0.265776D-01 -0.264443D-01  0.695541D-01 -0.134411D+00  0.617037D-05
     16 -0.157116D-05 -0.790577D-02  0.157048D-02  0.381314D-04  0.120647D-02
     17  0.000000D+00  0.784908D-02  0.182635D-02 -0.178623D-03  0.130171D-02
     18  0.253546D-02 -0.964006D-02  0.126806D-02  0.296843D-02  0.000000D+00
               11            12            13            14            15 
     11  0.558607D-03
     12  0.000000D+00  0.106994D-02
     13 -0.218355D-01  0.682714D-05  0.264176D+00
     14 -0.377686D-01  0.132301D-04 -0.285869D-01  0.251624D+00
     15  0.135949D-04  0.424175D-02  0.941091D-05  0.209269D-04  0.312460D+00
     16 -0.703396D-03  0.000000D+00 -0.163846D+00  0.293651D-01 -0.149392D-04
     17  0.140838D-03  0.000000D+00  0.263614D-01 -0.253521D-01  0.226884D-05
     18  0.000000D+00 -0.411219D-03 -0.138321D-04  0.231333D-05 -0.213941D-01
               16            17            18 
     16  0.188079D+00
     17 -0.352332D-01  0.184551D-01
     18  0.179206D-04 -0.286775D-05  0.133303D-01
 Leave Link  716 at Sun Apr 14 23:00:29 2024, MaxMem=   104857600 cpu:               0.0 elap:               0.0
 (Enter /opt/g16/l123.exe)
 IRC-IRC-IRC-IRC-IRC-IRC-IRC-IRC-IRC-IRC-IRC-IRC-IRC-IRC-IRC-IRC-IRC-IRC
 Pt  2 Step number   1 out of a maximum of  10
 Using modified Bulirsch-Stoer corrector integration.
   Using distance weighted interpolants to fit PES.
 PreDWI: IReCr0= 2 IReCr1= 1 IReCr2= 1 IReCr3= 1
 Modified Bulirsch-Stoer Extrapolation Cycles:
    EPS =    0.000010000000000
    Cycle     1 NS=    48
      PEZero:  N= 2 I= 1 D=  1.57D-04 Err=  3.42D-06
    Cycle     2 NS=    64 Truncation Error =  0.000003419
 BS completed in    2 cycles and     112 integration steps.
 Maximum DWI energy   std dev =  0.000000085 at pt    11
 Maximum DWI gradient std dev =  0.008526096 at pt    12
 SUMMARY OF CORRECTOR INTEGRATION:
   Predictor End Point Energy =  -751.163127
   Old End Point Energy       =  -751.163127
   Corrected End Point Energy =  -751.163127
   Predictor End-Start Dist.  =     0.030113
   Old End-Start Dist.        =     0.030113
   New End-Start Dist.        =     0.030111
   New End-Old End Dist.      =     0.000204
 CORRECTOR INTEGRATION CONVERGENCE:
   Recorrection delta-x convergence threshold:    0.010000
   Delta-x Convergence Met
 Point Number:   2          Path Number:   1
                    CURRENT STRUCTURE
                Cartesian Coordinates (Ang):                
 ---------------------------------------------------------------------
 Center     Atomic                     Coordinates (Angstroms)
 Number     Number                        X           Y           Z
 ---------------------------------------------------------------------
      1          1                    1.359868   -0.994731   -1.216610
      2          1                    1.748417    1.149478   -0.000342
      3          1                    1.359801   -0.993874    1.217394
      4          1                    2.247026    2.233596   -0.000681
      5         14                    1.013123   -0.235635    0.000115
      6         17                   -1.004085    0.148334   -0.000085
 ---------------------------------------------------------------------
   CHANGE IN THE REACTION COORDINATE =    0.03011
   NET REACTION COORDINATE UP TO THIS POINT =    0.06022
  # OF POINTS ALONG THE PATH =   2
  # OF STEPS =   1

 Calculating another point on the path.
 Point Number  3 in FORWARD path direction.
 Using LQA Reaction Path Following.
   LQA: T_Est iteration completed in    3 iterations.
 IRC-IRC-IRC-IRC-IRC-IRC-IRC-IRC-IRC-IRC-IRC-IRC-IRC-IRC-IRC-IRC-IRC-IRC
 Leave Link  123 at Sun Apr 14 23:00:29 2024, MaxMem=   104857600 cpu:               0.0 elap:               0.0
 (Enter /opt/g16/l202.exe)
                          Input orientation:                          
 ---------------------------------------------------------------------
 Center     Atomic      Atomic             Coordinates (Angstroms)
 Number     Number       Type             X           Y           Z
 ---------------------------------------------------------------------
      1          1           0        1.359803   -0.994851   -1.216374
      2          1           0        1.744024    1.139599   -0.000339
      3          1           0        1.359734   -0.993995    1.217158
      4          1           0        2.251905    2.244138   -0.000684
      5         14           0        1.013113   -0.235641    0.000115
      6         17           0       -1.004087    0.148327   -0.000085
 ---------------------------------------------------------------------
                    Distance matrix (angstroms):
                    1          2          3          4          5
     1  H    0.000000
     2  H    2.486412   0.000000
     3  H    2.433532   2.486403   0.000000
     4  H    3.572786   1.215710   3.572760   0.000000
     5  Si   1.475276   1.557407   1.475276   2.771987   0.000000
     6  Cl   2.893819   2.921427   2.893826   3.872197   2.053418
                    6
     6  Cl   0.000000
 Symmetry turned off by external request.
 Stoichiometry    ClH4Si(2)
 Framework group  C1[X(ClH4Si)]
 Deg. of freedom    12
 Full point group                 C1      NOp   1
 Rotational constants (GHZ):          39.3933378           6.3399358           5.8375235
 Leave Link  202 at Sun Apr 14 23:00:29 2024, MaxMem=   104857600 cpu:               0.0 elap:               0.0
 (Enter /opt/g16/l301.exe)
 Standard basis: STO-3G (5D, 7F)
 Ernie: Thresh=  0.10000D-02 Tol=  0.10000D-05 Strict=F.
    22 basis functions,    66 primitive gaussians,    22 cartesian basis functions
    18 alpha electrons       17 beta electrons
       nuclear repulsion energy        91.8015606110 Hartrees.
 IExCor=    0 DFT=F Ex=HF Corr=None ExCW=0 ScaHFX=  1.000000
 ScaDFX=  1.000000  1.000000  1.000000  1.000000 ScalE2=  1.000000  1.000000
 IRadAn=      5 IRanWt=     -1 IRanGd=            0 ICorTp=0 IEmpDi=  4
 NAtoms=    6 NActive=    6 NUniq=    6 SFac= 1.00D+00 NAtFMM=   60 NAOKFM=F Big=F
 Integral buffers will be    131072 words long.
 Raffenetti 2 integral format.
 Two-electron integral symmetry is turned off.
 Leave Link  301 at Sun Apr 14 23:00:29 2024, MaxMem=   104857600 cpu:               0.0 elap:               0.0
 (Enter /opt/g16/l402.exe)
 External calculation of energy, first and second derivatives.
 Running external command "python3 -u ../pes/h4sicl_pes.py R"
         input file       "/home/jh-li/scratch/g16/Gau-277513.EIn"
         output file      "/home/jh-li/scratch/g16/Gau-277513.EOu"
         message file     "/home/jh-li/scratch/g16/Gau-277513.EMs"
         fchk file        "/home/jh-li/scratch/g16/Gau-277513.EFC"
         mat. el file     "/home/jh-li/scratch/g16/Gau-277513.EUF"
 initialization done
 Recovered energy= -751.163233574     dipole=      0.000000000000      0.000000000000      0.000000000000
 NRF= 0 NRA=   0 NVA=   0 HaveQM=F NVQ=       0
 Convergence limit is  0.750E-04 MaxStp= 10000 StMxLn= 3.00D-04 StpMin= 1.00D-06.
 Convergence criteria             0.00011250 0.00007500 0.00045000 0.00030000
  Step  NS  ND Rises OKQ   Scale  Max. Force  RMS Force Max. Disp.  RMS Disp.     Energy   Flag
     1   0   0   F    T  1.00D+00 0.00000000 0.00000000 0.00000000 0.00000000 -751.1632336 ====
 Running external command "python3 -u ../pes/h4sicl_pes.py R"
         input file       "/home/jh-li/scratch/g16/Gau-277513.EIn"
         output file      "/home/jh-li/scratch/g16/Gau-277513.EOu"
         message file     "/home/jh-li/scratch/g16/Gau-277513.EMs"
         fchk file        "/home/jh-li/scratch/g16/Gau-277513.EFC"
         mat. el file     "/home/jh-li/scratch/g16/Gau-277513.EUF"
 initialization done
 Recovered energy= -751.163233574     dipole=      0.000000000000      0.000000000000      0.000000000000
 Energy=    -751.163234     NIter=   0.
 Dipole moment=       0.000000       0.000000       0.000000
 Leave Link  402 at Sun Apr 14 23:00:30 2024, MaxMem=   104857600 cpu:               0.0 elap:               0.8
 (Enter /opt/g16/l716.exe)
 Dipole        = 0.00000000D+00 0.00000000D+00 0.00000000D+00
 -------------------------------------------------------------------
 Center     Atomic                   Forces (Hartrees/Bohr)
 Number     Number              X              Y              Z
 -------------------------------------------------------------------
      1        1          -0.000020582   -0.000040775    0.000057656
      2        1          -0.001078269   -0.002456738    0.000000726
      3        1          -0.000020975   -0.000040920   -0.000057591
      4        1           0.001297176    0.002802163   -0.000000928
      5       14          -0.000145200   -0.000189521   -0.000000080
      6       17          -0.000029744   -0.000066080    0.000000216
 -------------------------------------------------------------------
 Cartesian Forces:  Max     0.002802163 RMS     0.000966267
 Force constants in Cartesian coordinates: 
                1             2             3             4             5 
      1  0.311128D-01
      2 -0.209840D-01  0.642539D-01
      3 -0.308710D-01  0.725554D-01  0.137372D+00
      4  0.408082D-02  0.208530D-02  0.142174D-02  0.310373D-01
      5 -0.270399D-02 -0.250837D-02  0.133422D-02  0.159569D-02  0.236294D-01
      6 -0.362891D-02 -0.899834D-02  0.166678D-02  0.000000D+00  0.000000D+00
      7  0.387639D-02 -0.886822D-03  0.198639D-02  0.408064D-02 -0.270151D-02
      8 -0.887835D-03  0.629494D-02 -0.622270D-02  0.208354D-02 -0.250345D-02
      9 -0.198510D-02  0.621304D-02 -0.738313D-02 -0.142310D-02 -0.133146D-02
     10 -0.287664D-03 -0.762363D-03 -0.587423D-03  0.532941D-02  0.185583D-01
     11  0.481213D-03 -0.585123D-03 -0.971586D-03  0.203971D-01  0.363320D-01
     12  0.322072D-03  0.877147D-03 -0.221951D-03 -0.637404D-05 -0.124578D-04
     13 -0.308353D-01  0.189207D-01  0.280981D-01 -0.345418D-01 -0.177652D-01
     14  0.162778D-01 -0.692825D-01 -0.668755D-01 -0.178786D-01 -0.581627D-01
     15  0.265205D-01 -0.693417D-01 -0.134425D+00  0.621788D-05  0.107908D-04
     16 -0.794564D-02  0.162759D-02 -0.491640D-04 -0.998046D-02  0.302028D-02
     17  0.781812D-02  0.182745D-02  0.175931D-03 -0.828274D-02  0.322128D-02
     18  0.964258D-02 -0.130917D-02  0.298699D-02  0.246574D-05  0.000000D+00
                6             7             8             9            10 
      6  0.246082D-01
      7  0.363091D-02  0.311091D-01
      8  0.900160D-02 -0.209580D-01  0.641520D-01
      9  0.166144D-02  0.308796D-01 -0.725050D-01  0.137478D+00
     10 -0.598055D-05 -0.287642D-03 -0.761749D-03  0.587937D-03  0.282205D-03
     11 -0.128832D-04  0.480976D-03 -0.584766D-03  0.971816D-03 -0.106880D-03
     12 -0.366338D-02 -0.322391D-03 -0.877011D-03 -0.221952D-03  0.000000D+00
     13  0.637069D-05 -0.308322D-01  0.188971D-01 -0.281054D-01 -0.625316D-02
     14  0.110143D-04  0.162555D-01 -0.691866D-01  0.668305D-01 -0.181547D-01
     15 -0.268444D-01 -0.265260D-01  0.692967D-01 -0.134524D+00  0.583188D-05
     16 -0.144780D-05 -0.794487D-02  0.162744D-02  0.474184D-04  0.121316D-02
     17  0.000000D+00  0.781125D-02  0.182826D-02 -0.174706D-03  0.122948D-02
     18  0.257417D-02 -0.964870D-02  0.131007D-02  0.298563D-02  0.000000D+00
               11            12            13            14            15 
     11  0.343325D-03
     12  0.000000D+00  0.494140D-03
     13 -0.208295D-01  0.651133D-05  0.265866D+00
     14 -0.356970D-01  0.124939D-04 -0.256940D-01  0.257978D+00
     15  0.128439D-04  0.398318D-02  0.828608D-05  0.190728D-04  0.313364D+00
     16 -0.424061D-03  0.000000D+00 -0.163411D+00  0.291914D-01 -0.148651D-04
     17  0.182588D-03  0.000000D+00  0.264656D-01 -0.256494D-01  0.232010D-05
     18  0.000000D+00 -0.370821D-03 -0.138526D-04  0.236323D-05 -0.215474D-01
               16            17            18 
     16  0.188071D+00
     17 -0.350423D-01  0.185898D-01
     18  0.178703D-04 -0.290595D-05  0.133701D-01
 Leave Link  716 at Sun Apr 14 23:00:30 2024, MaxMem=   104857600 cpu:               0.0 elap:               0.0
 (Enter /opt/g16/l123.exe)
 IRC-IRC-IRC-IRC-IRC-IRC-IRC-IRC-IRC-IRC-IRC-IRC-IRC-IRC-IRC-IRC-IRC-IRC
 Pt  3 Step number   1 out of a maximum of  10
 Using modified Bulirsch-Stoer corrector integration.
   Using distance weighted interpolants to fit PES.
 PreDWI: IReCr0= 2 IReCr1= 1 IReCr2= 1 IReCr3= 1
 Modified Bulirsch-Stoer Extrapolation Cycles:
    EPS =    0.000010000000000
    Cycle     1 NS=    48
      PEZero:  N= 2 I= 1 D=  1.57D-04 Err=  5.51D-06
    Cycle     2 NS=    64 Truncation Error =  0.000005505
 BS completed in    2 cycles and     112 integration steps.
 Maximum DWI energy   std dev =  0.000000083 at pt     8
 Maximum DWI gradient std dev =  0.005041070 at pt    16
 SUMMARY OF CORRECTOR INTEGRATION:
   Predictor End Point Energy =  -751.163234
   Old End Point Energy       =  -751.163234
   Corrected End Point Energy =  -751.163234
   Predictor End-Start Dist.  =     0.030115
   Old End-Start Dist.        =     0.030115
   New End-Start Dist.        =     0.030112
   New End-Old End Dist.      =     0.000165
 CORRECTOR INTEGRATION CONVERGENCE:
   Recorrection delta-x convergence threshold:    0.010000
   Delta-x Convergence Met
 Point Number:   3          Path Number:   1
                    CURRENT STRUCTURE
                Cartesian Coordinates (Ang):                
 ---------------------------------------------------------------------
 Center     Atomic                     Coordinates (Angstroms)
 Number     Number                        X           Y           Z
 ---------------------------------------------------------------------
      1          1                    1.359802   -0.994857   -1.216376
      2          1                    1.744056    1.139654   -0.000339
      3          1                    1.359733   -0.994000    1.217160
      4          1                    2.251928    2.244189   -0.000684
      5         14                    1.013111   -0.235644    0.000115
      6         17                   -1.004087    0.148327   -0.000085
 ---------------------------------------------------------------------
   CHANGE IN THE REACTION COORDINATE =    0.03011
   NET REACTION COORDINATE UP TO THIS POINT =    0.09033
  # OF POINTS ALONG THE PATH =   3
  # OF STEPS =   1

 Calculating another point on the path.
 Point Number  4 in FORWARD path direction.
 Using LQA Reaction Path Following.
   LQA: T_Est iteration completed in    3 iterations.
 IRC-IRC-IRC-IRC-IRC-IRC-IRC-IRC-IRC-IRC-IRC-IRC-IRC-IRC-IRC-IRC-IRC-IRC
 Leave Link  123 at Sun Apr 14 23:00:30 2024, MaxMem=   104857600 cpu:               0.0 elap:               0.0
 (Enter /opt/g16/l202.exe)
                          Input orientation:                          
 ---------------------------------------------------------------------
 Center     Atomic      Atomic             Coordinates (Angstroms)
 Number     Number       Type             X           Y           Z
 ---------------------------------------------------------------------
      1          1           0        1.359708   -0.995031   -1.216153
      2          1           0        1.739968    1.130283   -0.000336
      3          1           0        1.359638   -0.994175    1.216937
      4          1           0        2.257027    2.255200   -0.000688
      5         14           0        1.013088   -0.235680    0.000115
      6         17           0       -1.004092    0.148319   -0.000085
 ---------------------------------------------------------------------
                    Distance matrix (angstroms):
                    1          2          3          4          5
     1  H    0.000000
     2  H    2.477856   0.000000
     3  H    2.433090   2.477848   0.000000
     4  H    3.584207   1.238058   3.584182   0.000000
     5  Si   1.475150   1.547324   1.475150   2.784218   0.000000
     6  Cl   2.893721   2.914466   2.893727   3.882505   2.053404
                    6
     6  Cl   0.000000
 Symmetry turned off by external request.
 Stoichiometry    ClH4Si(2)
 Framework group  C1[X(ClH4Si)]
 Deg. of freedom    12
 Full point group                 C1      NOp   1
 Rotational constants (GHZ):          39.2954734           6.3396729           5.8350012
 Leave Link  202 at Sun Apr 14 23:00:30 2024, MaxMem=   104857600 cpu:               0.0 elap:               0.0
 (Enter /opt/g16/l301.exe)
 Standard basis: STO-3G (5D, 7F)
 Ernie: Thresh=  0.10000D-02 Tol=  0.10000D-05 Strict=F.
    22 basis functions,    66 primitive gaussians,    22 cartesian basis functions
    18 alpha electrons       17 beta electrons
       nuclear repulsion energy        91.8162069534 Hartrees.
 IExCor=    0 DFT=F Ex=HF Corr=None ExCW=0 ScaHFX=  1.000000
 ScaDFX=  1.000000  1.000000  1.000000  1.000000 ScalE2=  1.000000  1.000000
 IRadAn=      5 IRanWt=     -1 IRanGd=            0 ICorTp=0 IEmpDi=  4
 NAtoms=    6 NActive=    6 NUniq=    6 SFac= 1.00D+00 NAtFMM=   60 NAOKFM=F Big=F
 Integral buffers will be    131072 words long.
 Raffenetti 2 integral format.
 Two-electron integral symmetry is turned off.
 Leave Link  301 at Sun Apr 14 23:00:30 2024, MaxMem=   104857600 cpu:               0.1 elap:               0.1
 (Enter /opt/g16/l402.exe)
 External calculation of energy, first and second derivatives.
 Running external command "python3 -u ../pes/h4sicl_pes.py R"
         input file       "/home/jh-li/scratch/g16/Gau-277513.EIn"
         output file      "/home/jh-li/scratch/g16/Gau-277513.EOu"
         message file     "/home/jh-li/scratch/g16/Gau-277513.EMs"
         fchk file        "/home/jh-li/scratch/g16/Gau-277513.EFC"
         mat. el file     "/home/jh-li/scratch/g16/Gau-277513.EUF"
 initialization done
 Recovered energy= -751.163370861     dipole=      0.000000000000      0.000000000000      0.000000000000
 NRF= 0 NRA=   0 NVA=   0 HaveQM=F NVQ=       0
 Convergence limit is  0.750E-04 MaxStp= 10000 StMxLn= 3.00D-04 StpMin= 1.00D-06.
 Convergence criteria             0.00011250 0.00007500 0.00045000 0.00030000
  Step  NS  ND Rises OKQ   Scale  Max. Force  RMS Force Max. Disp.  RMS Disp.     Energy   Flag
     1   0   0   F    T  1.00D+00 0.00000000 0.00000000 0.00000000 0.00000000 -751.1633709 ====
 Running external command "python3 -u ../pes/h4sicl_pes.py R"
         input file       "/home/jh-li/scratch/g16/Gau-277513.EIn"
         output file      "/home/jh-li/scratch/g16/Gau-277513.EOu"
         message file     "/home/jh-li/scratch/g16/Gau-277513.EMs"
         fchk file        "/home/jh-li/scratch/g16/Gau-277513.EFC"
         mat. el file     "/home/jh-li/scratch/g16/Gau-277513.EUF"
 initialization done
 Recovered energy= -751.163370861     dipole=      0.000000000000      0.000000000000      0.000000000000
 Energy=    -751.163371     NIter=   0.
 Dipole moment=       0.000000       0.000000       0.000000
 Leave Link  402 at Sun Apr 14 23:00:31 2024, MaxMem=   104857600 cpu:               0.1 elap:               0.8
 (Enter /opt/g16/l716.exe)
 Dipole        = 0.00000000D+00 0.00000000D+00 0.00000000D+00
 -------------------------------------------------------------------
 Center     Atomic                   Forces (Hartrees/Bohr)
 Number     Number              X              Y              Z
 -------------------------------------------------------------------
      1        1          -0.000034572   -0.000066369    0.000066194
      2        1          -0.001216487   -0.002828329    0.000000845
      3        1          -0.000034918   -0.000066511   -0.000066118
      4        1           0.001649221    0.003561242   -0.000001164
      5       14          -0.000291519   -0.000506698    0.000000046
      6       17          -0.000069170   -0.000084946    0.000000196
 -------------------------------------------------------------------
 Cartesian Forces:  Max     0.003561242 RMS     0.001184515
 Force constants in Cartesian coordinates: 
                1             2             3             4             5 
      1  0.311588D-01
      2 -0.208920D-01  0.646091D-01
      3 -0.308393D-01  0.726534D-01  0.137523D+00
      4  0.411299D-02  0.193152D-02  0.129836D-02  0.332971D-01
      5 -0.278980D-02 -0.285413D-02  0.100441D-02  0.744463D-02  0.345414D-01
      6 -0.371297D-02 -0.920913D-02  0.167439D-02 -0.284817D-05 -0.462690D-05
      7  0.386816D-02 -0.882093D-03  0.199895D-02  0.411281D-02 -0.278726D-02
      8 -0.883113D-03  0.623950D-02 -0.621277D-02  0.192985D-02 -0.284879D-02
      9 -0.199764D-02  0.620309D-02 -0.746848D-02 -0.129961D-02 -0.100141D-02
     10 -0.231900D-03 -0.654912D-03 -0.513258D-03  0.534752D-02  0.170842D-01
     11  0.498170D-03 -0.482407D-03 -0.832685D-03  0.188183D-01  0.339257D-01
     12  0.312139D-03  0.798849D-03 -0.224620D-03 -0.587828D-05 -0.114816D-04
     13 -0.309331D-01  0.188119D-01  0.281080D-01 -0.365805D-01 -0.216045D-01
     14  0.162880D-01 -0.693356D-01 -0.667878D-01 -0.217136D-01 -0.660899D-01
     15  0.265917D-01 -0.691039D-01 -0.134511D+00  0.747380D-05  0.133311D-04
     16 -0.797355D-02  0.168598D-02 -0.540951D-04 -0.102849D-01  0.265498D-02
     17  0.778023D-02  0.182404D-02  0.171139D-03 -0.841203D-02  0.333042D-02
     18  0.964625D-02 -0.134595D-02  0.300248D-02  0.250124D-05  0.000000D+00
                6             7             8             9            10 
      6  0.240211D-01
      7  0.371504D-02  0.311550D-01
      8  0.921261D-02 -0.208660D-01  0.645070D-01
      9  0.166870D-02  0.308477D-01 -0.726032D-01  0.137629D+00
     10 -0.550803D-05 -0.231881D-03 -0.654369D-03  0.513702D-03 -0.788903D-04
     11 -0.118856D-04  0.497941D-03 -0.482120D-03  0.832850D-03  0.153523D-03
     12 -0.295061D-02 -0.312466D-03 -0.798772D-03 -0.224590D-03  0.000000D+00
     13  0.762899D-05 -0.309300D-01  0.187882D-01 -0.281152D-01 -0.601549D-02
     14  0.135577D-04  0.162655D-01 -0.692400D-01  0.667429D-01 -0.170848D-01
     15 -0.270201D-01 -0.265970D-01  0.690589D-01 -0.134609D+00  0.548909D-05
     16 -0.133678D-05 -0.797280D-02  0.168583D-02  0.522975D-04  0.120719D-02
     17  0.000000D+00  0.777337D-02  0.182487D-02 -0.169891D-03  0.115912D-02
     18  0.260918D-02 -0.965236D-02  0.134686D-02  0.300109D-02  0.000000D+00
               11            12            13            14            15 
     11  0.407734D-03
     12  0.000000D+00 -0.459538D-05
     13 -0.197865D-01  0.618541D-05  0.267435D+00
     14 -0.335956D-01  0.117546D-04 -0.227723D-01  0.264164D+00
     15  0.120841D-04  0.373729D-02  0.719460D-05  0.172288D-04  0.314087D+00
     16 -0.182231D-03  0.000000D+00 -0.162982D+00  0.290155D-01 -0.147887D-04
     17  0.219630D-03  0.000000D+00  0.265584D-01 -0.259013D-01  0.236435D-05
     18  0.000000D+00 -0.333588D-03 -0.138687D-04  0.240327D-05 -0.216773D-01
               16            17            18 
     16  0.188008D+00
     17 -0.348595D-01  0.187024D-01
     18  0.178152D-04 -0.293794D-05  0.133968D-01
 Leave Link  716 at Sun Apr 14 23:00:31 2024, MaxMem=   104857600 cpu:               0.0 elap:               0.0
 (Enter /opt/g16/l123.exe)
 IRC-IRC-IRC-IRC-IRC-IRC-IRC-IRC-IRC-IRC-IRC-IRC-IRC-IRC-IRC-IRC-IRC-IRC
 Pt  4 Step number   1 out of a maximum of  10
 Using modified Bulirsch-Stoer corrector integration.
   Using distance weighted interpolants to fit PES.
 PreDWI: IReCr0= 2 IReCr1= 1 IReCr2= 1 IReCr3= 1
 Modified Bulirsch-Stoer Extrapolation Cycles:
    EPS =    0.000010000000000
    Cycle     1 NS=    48
      PEZero:  N= 2 I= 1 D=  1.57D-04 Err=  6.72D-06
    Cycle     2 NS=    64 Truncation Error =  0.000006721
 BS completed in    2 cycles and     112 integration steps.
 Maximum DWI energy   std dev =  0.000000076 at pt    10
 Maximum DWI gradient std dev =  0.003858163 at pt    16
 SUMMARY OF CORRECTOR INTEGRATION:
   Predictor End Point Energy =  -751.163371
   Old End Point Energy       =  -751.163371
   Corrected End Point Energy =  -751.163371
   Predictor End-Start Dist.  =     0.030115
   Old End-Start Dist.        =     0.030115
   New End-Start Dist.        =     0.030111
   New End-Old End Dist.      =     0.000139
 CORRECTOR INTEGRATION CONVERGENCE:
   Recorrection delta-x convergence threshold:    0.010000
   Delta-x Convergence Met
 Point Number:   4          Path Number:   1
                    CURRENT STRUCTURE
                Cartesian Coordinates (Ang):                
 ---------------------------------------------------------------------
 Center     Atomic                     Coordinates (Angstroms)
 Number     Number                        X           Y           Z
 ---------------------------------------------------------------------
      1          1                    1.359707   -0.995036   -1.216155
      2          1                    1.739996    1.130332   -0.000336
      3          1                    1.359637   -0.994180    1.216939
      4          1                    2.257045    2.255240   -0.000688
      5         14                    1.013086   -0.235683    0.000115
      6         17                   -1.004092    0.148319   -0.000085
 ---------------------------------------------------------------------
   CHANGE IN THE REACTION COORDINATE =    0.03011
   NET REACTION COORDINATE UP TO THIS POINT =    0.12044
  # OF POINTS ALONG THE PATH =   4
  # OF STEPS =   1

 Calculating another point on the path.
 Point Number  5 in FORWARD path direction.
 Using LQA Reaction Path Following.
   LQA: T_Est iteration completed in    3 iterations.
 IRC-IRC-IRC-IRC-IRC-IRC-IRC-IRC-IRC-IRC-IRC-IRC-IRC-IRC-IRC-IRC-IRC-IRC
 Leave Link  123 at Sun Apr 14 23:00:31 2024, MaxMem=   104857600 cpu:               0.0 elap:               0.0
 (Enter /opt/g16/l202.exe)
                          Input orientation:                          
 ---------------------------------------------------------------------
 Center     Atomic      Atomic             Coordinates (Angstroms)
 Number     Number       Type             X           Y           Z
 ---------------------------------------------------------------------
      1          1           0        1.359582   -0.995266   -1.215947
      2          1           0        1.736248    1.121548   -0.000334
      3          1           0        1.359511   -0.994411    1.216732
      4          1           0        2.262368    2.266731   -0.000692
      5         14           0        1.013048   -0.235753    0.000115
      6         17           0       -1.004099    0.148311   -0.000085
 ---------------------------------------------------------------------
                    Distance matrix (angstroms):
                    1          2          3          4          5
     1  H    0.000000
     2  H    2.469918   0.000000
     3  H    2.432679   2.469911   0.000000
     4  H    3.596178   1.260257   3.596153   0.000000
     5  Si   1.475044   1.537947   1.475044   2.797003   0.000000
     6  Cl   2.893627   2.908039   2.893633   3.893265   2.053385
                    6
     6  Cl   0.000000
 Symmetry turned off by external request.
 Stoichiometry    ClH4Si(2)
 Framework group  C1[X(ClH4Si)]
 Deg. of freedom    12
 Full point group                 C1      NOp   1
 Rotational constants (GHZ):          39.1827114           6.3393183           5.8320731
 Leave Link  202 at Sun Apr 14 23:00:31 2024, MaxMem=   104857600 cpu:               0.0 elap:               0.0
 (Enter /opt/g16/l301.exe)
 Standard basis: STO-3G (5D, 7F)
 Ernie: Thresh=  0.10000D-02 Tol=  0.10000D-05 Strict=F.
    22 basis functions,    66 primitive gaussians,    22 cartesian basis functions
    18 alpha electrons       17 beta electrons
       nuclear repulsion energy        91.8280289432 Hartrees.
 IExCor=    0 DFT=F Ex=HF Corr=None ExCW=0 ScaHFX=  1.000000
 ScaDFX=  1.000000  1.000000  1.000000  1.000000 ScalE2=  1.000000  1.000000
 IRadAn=      5 IRanWt=     -1 IRanGd=            0 ICorTp=0 IEmpDi=  4
 NAtoms=    6 NActive=    6 NUniq=    6 SFac= 1.00D+00 NAtFMM=   60 NAOKFM=F Big=F
 Integral buffers will be    131072 words long.
 Raffenetti 2 integral format.
 Two-electron integral symmetry is turned off.
 Leave Link  301 at Sun Apr 14 23:00:31 2024, MaxMem=   104857600 cpu:               0.0 elap:               0.0
 (Enter /opt/g16/l402.exe)
 External calculation of energy, first and second derivatives.
 Running external command "python3 -u ../pes/h4sicl_pes.py R"
         input file       "/home/jh-li/scratch/g16/Gau-277513.EIn"
         output file      "/home/jh-li/scratch/g16/Gau-277513.EOu"
         message file     "/home/jh-li/scratch/g16/Gau-277513.EMs"
         fchk file        "/home/jh-li/scratch/g16/Gau-277513.EFC"
         mat. el file     "/home/jh-li/scratch/g16/Gau-277513.EUF"
 initialization done
 Recovered energy= -751.163531662     dipole=      0.000000000000      0.000000000000      0.000000000000
 NRF= 0 NRA=   0 NVA=   0 HaveQM=F NVQ=       0
 Convergence limit is  0.750E-04 MaxStp= 10000 StMxLn= 3.00D-04 StpMin= 1.00D-06.
 Convergence criteria             0.00011250 0.00007500 0.00045000 0.00030000
  Step  NS  ND Rises OKQ   Scale  Max. Force  RMS Force Max. Disp.  RMS Disp.     Energy   Flag
     1   0   0   F    T  1.00D+00 0.00000000 0.00000000 0.00000000 0.00000000 -751.1635317 ====
 Running external command "python3 -u ../pes/h4sicl_pes.py R"
         input file       "/home/jh-li/scratch/g16/Gau-277513.EIn"
         output file      "/home/jh-li/scratch/g16/Gau-277513.EOu"
         message file     "/home/jh-li/scratch/g16/Gau-277513.EMs"
         fchk file        "/home/jh-li/scratch/g16/Gau-277513.EFC"
         mat. el file     "/home/jh-li/scratch/g16/Gau-277513.EUF"
 initialization done
 Recovered energy= -751.163531662     dipole=      0.000000000000      0.000000000000      0.000000000000
 Energy=    -751.163532     NIter=   0.
 Dipole moment=       0.000000       0.000000       0.000000
 Leave Link  402 at Sun Apr 14 23:00:31 2024, MaxMem=   104857600 cpu:               0.0 elap:               0.8
 (Enter /opt/g16/l716.exe)
 Dipole        = 0.00000000D+00 0.00000000D+00 0.00000000D+00
 -------------------------------------------------------------------
 Center     Atomic                   Forces (Hartrees/Bohr)
 Number     Number              X              Y              Z
 -------------------------------------------------------------------
      1        1          -0.000051292   -0.000094844    0.000069454
      2        1          -0.001254580   -0.002990212    0.000000894
      3        1          -0.000051602   -0.000094982   -0.000069363
      4        1           0.001949106    0.004207798   -0.000001365
      5       14          -0.000469380   -0.000917399    0.000000199
      6       17          -0.000119588   -0.000101840    0.000000181
 -------------------------------------------------------------------
 Cartesian Forces:  Max     0.004207798 RMS     0.001356865
 Force constants in Cartesian coordinates: 
                1             2             3             4             5 
      1  0.311866D-01
      2 -0.208038D-01  0.649339D-01
      3 -0.308033D-01  0.727447D-01  0.137647D+00
      4  0.413999D-02  0.179557D-02  0.117252D-02  0.355421D-01
      5 -0.286893D-02 -0.316361D-02  0.675771D-03  0.132289D-01  0.453389D-01
      6 -0.378951D-02 -0.940253D-02  0.167965D-02 -0.473220D-05 -0.831250D-05
      7  0.385794D-02 -0.879302D-03  0.200806D-02  0.413980D-02 -0.286635D-02
      8 -0.880327D-03  0.618773D-02 -0.620331D-02  0.179399D-02 -0.315786D-02
      9 -0.200675D-02  0.619361D-02 -0.754550D-02 -0.117367D-02 -0.672554D-03
     10 -0.182325D-03 -0.560128D-03 -0.442553D-03  0.526800D-02  0.155945D-01
     11  0.511067D-03 -0.398632D-03 -0.700580D-03  0.172228D-01  0.313838D-01
     12  0.302080D-03  0.725498D-03 -0.227409D-03 -0.537758D-05 -0.104916D-04
     13 -0.310099D-01  0.187025D-01  0.281198D-01 -0.385517D-01 -0.254312D-01
     14  0.163007D-01 -0.693744D-01 -0.666869D-01 -0.255192D-01 -0.738291D-01
     15  0.266520D-01 -0.688872D-01 -0.134574D+00  0.872310D-05  0.158401D-04
     16 -0.799094D-02  0.174550D-02 -0.558495D-04 -0.105340D-01  0.234405D-02
     17  0.774275D-02  0.181541D-02  0.165944D-03 -0.852539D-02  0.342862D-02
     18  0.964569D-02 -0.137761D-02  0.301665D-02  0.253371D-05  0.000000D+00
                6             7             8             9            10 
      6  0.234541D-01
      7  0.379163D-02  0.311828D-01
      8  0.940620D-02 -0.207777D-01  0.648318D-01
      9  0.167362D-02  0.308115D-01 -0.726947D-01  0.137753D+00
     10 -0.503121D-05 -0.182305D-03 -0.559651D-03  0.442935D-03 -0.342987D-03
     11 -0.108740D-04  0.510847D-03 -0.398410D-03  0.700691D-03  0.458899D-03
     12 -0.232693D-02 -0.302412D-03 -0.725469D-03 -0.227349D-03  0.000000D+00
     13  0.888284D-05 -0.310068D-01  0.186787D-01 -0.281268D-01 -0.575079D-02
     14  0.160659D-04  0.162782D-01 -0.692790D-01  0.666420D-01 -0.160220D-01
     15 -0.271187D-01 -0.266573D-01  0.688422D-01 -0.134672D+00  0.514781D-05
     16 -0.124135D-05 -0.799021D-02  0.174536D-02  0.540018D-04  0.118721D-02
     17  0.000000D+00  0.773590D-02  0.181627D-02 -0.164675D-03  0.109207D-02
     18  0.264055D-02 -0.965178D-02  0.137855D-02  0.301522D-02  0.000000D+00
               11            12            13            14            15 
     11  0.654252D-03
     12  0.000000D+00 -0.425254D-03
     13 -0.187215D-01  0.585169D-05  0.268888D+00
     14 -0.314996D-01  0.110216D-04 -0.198746D-01  0.270094D+00
     15  0.113304D-04  0.350592D-02  0.613551D-05  0.154238D-04  0.314653D+00
     16  0.173497D-04  0.000000D+00 -0.162574D+00  0.288361D-01 -0.147108D-04
     17  0.253665D-03  0.000000D+00  0.266422D-01 -0.261089D-01  0.239984D-05
     18  0.000000D+00 -0.299642D-03 -0.138837D-04  0.243423D-05 -0.217865D-01
               16            17            18 
     16  0.187903D+00
     17 -0.346878D-01  0.187953D-01
     18  0.177600D-04 -0.296572D-05  0.134123D-01
 Leave Link  716 at Sun Apr 14 23:00:31 2024, MaxMem=   104857600 cpu:               0.0 elap:               0.0
 (Enter /opt/g16/l123.exe)
 IRC-IRC-IRC-IRC-IRC-IRC-IRC-IRC-IRC-IRC-IRC-IRC-IRC-IRC-IRC-IRC-IRC-IRC
 Pt  5 Step number   1 out of a maximum of  10
 Using modified Bulirsch-Stoer corrector integration.
   Using distance weighted interpolants to fit PES.
 PreDWI: IReCr0= 2 IReCr1= 1 IReCr2= 1 IReCr3= 1
 Modified Bulirsch-Stoer Extrapolation Cycles:
    EPS =    0.000010000000000
    Cycle     1 NS=    48
      PEZero:  N= 2 I= 1 D=  1.57D-04 Err=  7.70D-06
    Cycle     2 NS=    64 Truncation Error =  0.000007701
 BS completed in    2 cycles and     112 integration steps.
 Maximum DWI energy   std dev =  0.000000065 at pt    10
 Maximum DWI gradient std dev =  0.003222936 at pt    16
 SUMMARY OF CORRECTOR INTEGRATION:
   Predictor End Point Energy =  -751.163532
   Old End Point Energy       =  -751.163532
   Corrected End Point Energy =  -751.163532
   Predictor End-Start Dist.  =     0.030115
   Old End-Start Dist.        =     0.030115
   New End-Start Dist.        =     0.030110
   New End-Old End Dist.      =     0.000124
 CORRECTOR INTEGRATION CONVERGENCE:
   Recorrection delta-x convergence threshold:    0.010000
   Delta-x Convergence Met
 Point Number:   5          Path Number:   1
                    CURRENT STRUCTURE
                Cartesian Coordinates (Ang):                
 ---------------------------------------------------------------------
 Center     Atomic                     Coordinates (Angstroms)
 Number     Number                        X           Y           Z
 ---------------------------------------------------------------------
      1          1                    1.359581   -0.995270   -1.215949
      2          1                    1.736274    1.121593   -0.000334
      3          1                    1.359510   -0.994414    1.216734
      4          1                    2.262383    2.266763   -0.000692
      5         14                    1.013047   -0.235755    0.000115
      6         17                   -1.004100    0.148311   -0.000085
 ---------------------------------------------------------------------
   CHANGE IN THE REACTION COORDINATE =    0.03011
   NET REACTION COORDINATE UP TO THIS POINT =    0.15055
  # OF POINTS ALONG THE PATH =   5
  # OF STEPS =   1

 Calculating another point on the path.
 Point Number  6 in FORWARD path direction.
 Using LQA Reaction Path Following.
   LQA: T_Est iteration completed in    3 iterations.
 IRC-IRC-IRC-IRC-IRC-IRC-IRC-IRC-IRC-IRC-IRC-IRC-IRC-IRC-IRC-IRC-IRC-IRC
 Leave Link  123 at Sun Apr 14 23:00:32 2024, MaxMem=   104857600 cpu:               0.0 elap:               0.0
 (Enter /opt/g16/l202.exe)
                          Input orientation:                          
 ---------------------------------------------------------------------
 Center     Atomic      Atomic             Coordinates (Angstroms)
 Number     Number       Type             X           Y           Z
 ---------------------------------------------------------------------
      1          1           0        1.359420   -0.995557   -1.215759
      2          1           0        1.732899    1.113465   -0.000331
      3          1           0        1.359348   -0.994702    1.216544
      4          1           0        2.267925    2.278727   -0.000696
      5         14           0        1.012995   -0.235861    0.000115
      6         17           0       -1.004111    0.148303   -0.000085
 ---------------------------------------------------------------------
                    Distance matrix (angstroms):
                    1          2          3          4          5
     1  H    0.000000
     2  H    2.462666   0.000000
     3  H    2.432303   2.462659   0.000000
     4  H    3.608697   1.282220   3.608672   0.000000
     5  Si   1.474957   1.529360   1.474957   2.810339   0.000000
     6  Cl   2.893537   2.902199   2.893542   3.904475   2.053363
                    6
     6  Cl   0.000000
 Symmetry turned off by external request.
 Stoichiometry    ClH4Si(2)
 Framework group  C1[X(ClH4Si)]
 Deg. of freedom    12
 Full point group                 C1      NOp   1
 Rotational constants (GHZ):          39.0546911           6.3388665           5.8287230
 Leave Link  202 at Sun Apr 14 23:00:32 2024, MaxMem=   104857600 cpu:               0.0 elap:               0.0
 (Enter /opt/g16/l301.exe)
 Standard basis: STO-3G (5D, 7F)
 Ernie: Thresh=  0.10000D-02 Tol=  0.10000D-05 Strict=F.
    22 basis functions,    66 primitive gaussians,    22 cartesian basis functions
    18 alpha electrons       17 beta electrons
       nuclear repulsion energy        91.8366398911 Hartrees.
 IExCor=    0 DFT=F Ex=HF Corr=None ExCW=0 ScaHFX=  1.000000
 ScaDFX=  1.000000  1.000000  1.000000  1.000000 ScalE2=  1.000000  1.000000
 IRadAn=      5 IRanWt=     -1 IRanGd=            0 ICorTp=0 IEmpDi=  4
 NAtoms=    6 NActive=    6 NUniq=    6 SFac= 1.00D+00 NAtFMM=   60 NAOKFM=F Big=F
 Integral buffers will be    131072 words long.
 Raffenetti 2 integral format.
 Two-electron integral symmetry is turned off.
 Leave Link  301 at Sun Apr 14 23:00:32 2024, MaxMem=   104857600 cpu:               0.0 elap:               0.0
 (Enter /opt/g16/l402.exe)
 External calculation of energy, first and second derivatives.
 Running external command "python3 -u ../pes/h4sicl_pes.py R"
         input file       "/home/jh-li/scratch/g16/Gau-277513.EIn"
         output file      "/home/jh-li/scratch/g16/Gau-277513.EOu"
         message file     "/home/jh-li/scratch/g16/Gau-277513.EMs"
         fchk file        "/home/jh-li/scratch/g16/Gau-277513.EFC"
         mat. el file     "/home/jh-li/scratch/g16/Gau-277513.EUF"
 initialization done
 Recovered energy= -751.163709665     dipole=      0.000000000000      0.000000000000      0.000000000000
 NRF= 0 NRA=   0 NVA=   0 HaveQM=F NVQ=       0
 Convergence limit is  0.750E-04 MaxStp= 10000 StMxLn= 3.00D-04 StpMin= 1.00D-06.
 Convergence criteria             0.00011250 0.00007500 0.00045000 0.00030000
  Step  NS  ND Rises OKQ   Scale  Max. Force  RMS Force Max. Disp.  RMS Disp.     Energy   Flag
     1   0   0   F    T  1.00D+00 0.00000000 0.00000000 0.00000000 0.00000000 -751.1637097 ====
 Running external command "python3 -u ../pes/h4sicl_pes.py R"
         input file       "/home/jh-li/scratch/g16/Gau-277513.EIn"
         output file      "/home/jh-li/scratch/g16/Gau-277513.EOu"
         message file     "/home/jh-li/scratch/g16/Gau-277513.EMs"
         fchk file        "/home/jh-li/scratch/g16/Gau-277513.EFC"
         mat. el file     "/home/jh-li/scratch/g16/Gau-277513.EUF"
 initialization done
 Recovered energy= -751.163709665     dipole=      0.000000000000      0.000000000000      0.000000000000
 Energy=    -751.163710     NIter=   0.
 Dipole moment=       0.000000       0.000000       0.000000
 Leave Link  402 at Sun Apr 14 23:00:32 2024, MaxMem=   104857600 cpu:               0.1 elap:               0.8
 (Enter /opt/g16/l716.exe)
 Dipole        = 0.00000000D+00 0.00000000D+00 0.00000000D+00
 -------------------------------------------------------------------
 Center     Atomic                   Forces (Hartrees/Bohr)
 Number     Number              X              Y              Z
 -------------------------------------------------------------------
      1        1          -0.000070160   -0.000124045    0.000068436
      2        1          -0.001212138   -0.002980301    0.000000887
      3        1          -0.000070440   -0.000124175   -0.000068330
      4        1           0.002195766    0.004739277   -0.000001529
      5       14          -0.000662721   -0.001385405    0.000000366
      6       17          -0.000177571   -0.000116825    0.000000169
 -------------------------------------------------------------------
 Cartesian Forces:  Max     0.004739277 RMS     0.001492339
 Force constants in Cartesian coordinates: 
                1             2             3             4             5 
      1  0.311988D-01
      2 -0.207199D-01  0.652288D-01
      3 -0.307634D-01  0.728292D-01  0.137748D+00
      4  0.416182D-02  0.167728D-02  0.104845D-02  0.377240D-01
      5 -0.294157D-02 -0.343636D-02  0.357642D-03  0.188186D-01  0.557725D-01
      6 -0.385859D-02 -0.957788D-02  0.168316D-02 -0.655407D-05 -0.118715D-04
      7  0.384635D-02 -0.878643D-03  0.201413D-02  0.416162D-02 -0.293895D-02
      8 -0.879670D-03  0.613992D-02 -0.619442D-02  0.167579D-02 -0.343023D-02
      9 -0.201281D-02  0.618471D-02 -0.761370D-02 -0.104951D-02 -0.354236D-03
     10 -0.138535D-03 -0.477212D-03 -0.377457D-03  0.511656D-02  0.141412D-01
     11  0.520939D-03 -0.331803D-03 -0.579589D-03  0.156653D-01  0.288219D-01
     12  0.292025D-03  0.657538D-03 -0.230234D-03 -0.488954D-05 -0.952321D-05
     13 -0.310684D-01  0.185932D-01  0.281329D-01 -0.404328D-01 -0.291698D-01
     14  0.163156D-01 -0.694021D-01 -0.665782D-01 -0.292181D-01 -0.812458D-01
     15  0.267013D-01 -0.686927D-01 -0.134620D+00  0.993930D-05  0.182659D-04
     16 -0.799874D-02  0.180552D-02 -0.558334D-04 -0.107279D-01  0.209028D-02
     17  0.770613D-02  0.180196D-02  0.160882D-03 -0.862410D-02  0.351484D-02
     18  0.964169D-02 -0.140434D-02  0.302994D-02  0.256300D-05  0.000000D+00
                6             7             8             9            10 
      6  0.229216D-01
      7  0.386077D-02  0.311950D-01
      8  0.958173D-02 -0.206938D-01  0.651265D-01
      9  0.167681D-02  0.307715D-01 -0.727793D-01  0.137854D+00
     10 -0.456514D-05 -0.138515D-03 -0.476796D-03  0.377785D-03 -0.529522D-03
     11 -0.988144D-05  0.520729D-03 -0.331640D-03  0.579656D-03  0.772362D-03
     12 -0.179139D-02 -0.292360D-03 -0.657547D-03 -0.230145D-03  0.000000D+00
     13  0.101090D-04 -0.310652D-01  0.185694D-01 -0.281397D-01 -0.546633D-02
     14  0.184899D-04  0.162930D-01 -0.693070D-01  0.665333D-01 -0.149847D-01
     15 -0.271564D-01 -0.267065D-01  0.686477D-01 -0.134719D+00  0.481393D-05
     16 -0.116391D-05 -0.799802D-02  0.180539D-02  0.539368D-04  0.115339D-02
     17  0.000000D+00  0.769929D-02  0.180284D-02 -0.159590D-03  0.102944D-02
     18  0.266841D-02 -0.964776D-02  0.140530D-02  0.302849D-02  0.000000D+00
               11            12            13            14            15 
     11  0.998984D-03
     12  0.000000D+00 -0.770327D-03
     13 -0.176535D-01  0.551814D-05  0.270226D+00
     14 -0.294459D-01  0.103069D-04 -0.170604D-01  0.275681D+00
     15  0.105954D-04  0.329051D-02  0.511956D-05  0.136926D-04  0.315090D+00
     16  0.173936D-03  0.000000D+00 -0.162197D+00  0.286545D-01 -0.146335D-04
     17  0.285772D-03  0.000000D+00  0.267182D-01 -0.262755D-01  0.242746D-05
     18  0.000000D+00 -0.269032D-03 -0.138977D-04  0.245651D-05 -0.218780D-01
               16            17            18 
     16  0.187768D+00
     17 -0.345291D-01  0.188706D-01
     18  0.177077D-04 -0.298952D-05  0.134188D-01
[...]
 NAtoms=    6 NActive=    6 NUniq=    6 SFac= 1.00D+00 NAtFMM=   60 NAOKFM=F Big=F
 Integral buffers will be    131072 words long.
 Raffenetti 2 integral format.
 Two-electron integral symmetry is turned off.
 Leave Link  301 at Sun Apr 14 23:03:39 2024, MaxMem=   104857600 cpu:               0.1 elap:               0.1
 (Enter /opt/g16/l402.exe)
 External calculation of energy, first and second derivatives.
 Running external command "python3 -u ../pes/h4sicl_pes.py R"
         input file       "/home/jh-li/scratch/g16/Gau-277513.EIn"
         output file      "/home/jh-li/scratch/g16/Gau-277513.EOu"
         message file     "/home/jh-li/scratch/g16/Gau-277513.EMs"
         fchk file        "/home/jh-li/scratch/g16/Gau-277513.EFC"
         mat. el file     "/home/jh-li/scratch/g16/Gau-277513.EUF"
 initialization done
 Recovered energy= -751.190010647     dipole=      0.000000000000      0.000000000000      0.000000000000
 NRF= 0 NRA=   0 NVA=   0 HaveQM=F NVQ=       0
 Convergence limit is  0.750E-04 MaxStp= 10000 StMxLn= 3.00D-04 StpMin= 1.00D-06.
 Convergence criteria             0.00011250 0.00007500 0.00045000 0.00030000
  Step  NS  ND Rises OKQ   Scale  Max. Force  RMS Force Max. Disp.  RMS Disp.     Energy   Flag
     1   0   0   F    T  1.00D+00 0.00000000 0.00000000 0.00000000 0.00000000 -751.1900106 ====
 Running external command "python3 -u ../pes/h4sicl_pes.py R"
         input file       "/home/jh-li/scratch/g16/Gau-277513.EIn"
         output file      "/home/jh-li/scratch/g16/Gau-277513.EOu"
         message file     "/home/jh-li/scratch/g16/Gau-277513.EMs"
         fchk file        "/home/jh-li/scratch/g16/Gau-277513.EFC"
         mat. el file     "/home/jh-li/scratch/g16/Gau-277513.EUF"
 initialization done
 Recovered energy= -751.190010647     dipole=      0.000000000000      0.000000000000      0.000000000000
 Energy=    -751.190011     NIter=   0.
 Dipole moment=       0.000000       0.000000       0.000000
 Leave Link  402 at Sun Apr 14 23:03:39 2024, MaxMem=   104857600 cpu:               0.0 elap:               0.8
 (Enter /opt/g16/l716.exe)
 Dipole        = 0.00000000D+00 0.00000000D+00 0.00000000D+00
 -------------------------------------------------------------------
 Center     Atomic                   Forces (Hartrees/Bohr)
 Number     Number              X              Y              Z
 -------------------------------------------------------------------
      1        1          -0.000084013   -0.000118551   -0.000000190
      2        1           0.000584414    0.001476458   -0.000000493
      3        1          -0.000083991   -0.000118481    0.000000299
      4        1           0.000788767    0.001376664   -0.000000402
      5       14          -0.000819088   -0.002607383    0.000000784
      6       17          -0.000384617   -0.000009980   -0.000000000
 -------------------------------------------------------------------
 Cartesian Forces:  Max     0.002607383 RMS     0.000839921
 Force constants in Cartesian coordinates: 
                1             2             3             4             5 
      1  0.255090D-01
      2 -0.220064D-01  0.572843D-01
      3 -0.280608D-01  0.716236D-01  0.134292D+00
      4  0.187076D-03  0.107043D-02  0.697407D-03  0.588931D-01
      5  0.155412D-03  0.118044D-02  0.132071D-02  0.132408D+00  0.302866D+00
      6 -0.673224D-04 -0.702259D-04 -0.123463D-03 -0.389861D-04 -0.891941D-04
      7  0.312264D-02 -0.836853D-03  0.411431D-03  0.187101D-03  0.155520D-03
      8 -0.836656D-03  0.768025D-02 -0.820688D-02  0.106994D-02  0.117957D-02
      9 -0.410283D-03  0.819708D-02 -0.580803D-02 -0.698186D-03 -0.132172D-02
     10 -0.131091D-03 -0.855093D-03 -0.775423D-03 -0.587654D-01 -0.132483D+00
     11 -0.884482D-04 -0.121944D-02 -0.119626D-02 -0.132251D+00 -0.302936D+00
     12  0.480298D-04  0.248222D-03  0.203306D-04  0.389454D-04  0.891701D-04
     13 -0.239695D-01  0.212212D-01  0.279650D-01 -0.337147D-03 -0.867703D-03
     14  0.143382D-01 -0.659169D-01 -0.632802D-01 -0.255567D-02 -0.252662D-02
     15  0.193280D-01 -0.798251D-01 -0.131202D+00  0.000000D+00  0.116057D-05
     16 -0.471729D-02  0.140573D-02 -0.238488D-03 -0.163900D-03  0.634191D-03
     17  0.843742D-02  0.989712D-03 -0.262688D-03  0.256124D-03  0.229473D-03
     18  0.916323D-02 -0.176431D-03  0.281844D-02  0.000000D+00  0.000000D+00
                6             7             8             9            10 
      6  0.560485D-03
      7  0.672319D-04  0.255057D-01
      8  0.694467D-04 -0.219819D-01  0.571810D-01
      9 -0.122759D-03  0.280701D-01 -0.715693D-01  0.134398D+00
     10  0.390073D-04 -0.131123D-03 -0.854503D-03  0.776062D-03  0.589097D-01
     11  0.891504D-04 -0.885367D-04 -0.121873D-02  0.119722D-02  0.133993D+00
     12 -0.693080D-03 -0.479825D-04 -0.247499D-03  0.198427D-04 -0.394870D-04
     13  0.000000D+00 -0.239666D-01  0.211962D-01 -0.279739D-01  0.303598D-03
     14  0.000000D+00  0.143205D-01 -0.658138D-01  0.632339D-01  0.930655D-04
     15  0.526190D-03 -0.193319D-01  0.797793D-01 -0.131308D+00  0.000000D+00
     16  0.000000D+00 -0.471681D-02  0.140593D-02  0.237015D-03 -0.185988D-03
     17  0.000000D+00  0.843079D-02  0.990013D-03  0.264485D-03  0.108242D-03
     18 -0.147616D-03 -0.916976D-02  0.177827D-03  0.281762D-02  0.000000D+00
               11            12            13            14            15 
     11  0.305895D+00
     12 -0.902525D-04  0.167287D-03
     13 -0.782011D-03  0.000000D+00  0.215698D+00
     14 -0.389214D-03  0.000000D+00 -0.657612D-01  0.152324D+00
     15  0.000000D+00  0.528823D-03  0.218214D-04  0.437001D-04  0.278775D+00
     16 -0.785191D-03  0.000000D+00 -0.167727D+00  0.395670D-01 -0.186996D-04
     17 -0.126710D-03  0.000000D+00  0.249928D-01 -0.176698D-01  0.000000D+00
     18  0.000000D+00 -0.431328D-04 -0.134762D-04  0.129443D-05 -0.173122D-01
               16            17            18 
     16  0.177508D+00
     17 -0.422250D-01  0.155848D-01
     18  0.201303D-04 -0.259842D-05  0.118667D-01
 Leave Link  716 at Sun Apr 14 23:03:39 2024, MaxMem=   104857600 cpu:               0.0 elap:               0.0
 (Enter /opt/g16/l123.exe)
 IRC-IRC-IRC-IRC-IRC-IRC-IRC-IRC-IRC-IRC-IRC-IRC-IRC-IRC-IRC-IRC-IRC-IRC
 Pt200 Step number   1 out of a maximum of  10
 Using modified Bulirsch-Stoer corrector integration.
   Using distance weighted interpolants to fit PES.
 PreDWI: IReCr0= 2 IReCr1= 1 IReCr2= 1 IReCr3= 1
 Modified Bulirsch-Stoer Extrapolation Cycles:
    EPS =    0.000010000000000
    Cycle     1 NS=    48
      PEZero:  N= 2 I= 1 D=  1.57D-04 Err=  3.29D-07
    Cycle     2 NS=    64 Truncation Error =  0.000000329
 BS completed in    2 cycles and     112 integration steps.
 Maximum DWI energy   std dev =  0.000000065 at pt    32
 Maximum DWI gradient std dev =  0.000074930 at pt    35
 SUMMARY OF CORRECTOR INTEGRATION:
   Predictor End Point Energy =  -751.190011
   Old End Point Energy       =  -751.190011
   Corrected End Point Energy =  -751.190011
   Predictor End-Start Dist.  =     0.030118
   Old End-Start Dist.        =     0.030118
   New End-Start Dist.        =     0.030118
   New End-Old End Dist.      =     0.000001
 CORRECTOR INTEGRATION CONVERGENCE:
   Recorrection delta-x convergence threshold:    0.010000
   Delta-x Convergence Met
 Point Number: 100          Path Number:   2
                    CURRENT STRUCTURE
                Cartesian Coordinates (Ang):                
 ---------------------------------------------------------------------
 Center     Atomic                     Coordinates (Angstroms)
 Number     Number                        X           Y           Z
 ---------------------------------------------------------------------
      1          1                    1.312152   -1.064012   -1.225130
      2          1                    2.270244    2.230147   -0.000692
      3          1                    1.312079   -1.063128    1.225970
      4          1                    2.569729    2.909877   -0.000893
      5         14                    0.995275   -0.295441    0.000134
      6         17                   -1.011389    0.149507   -0.000086
 ---------------------------------------------------------------------
   CHANGE IN THE REACTION COORDINATE =    0.03012
   NET REACTION COORDINATE UP TO THIS POINT =    3.01149
  # OF POINTS ALONG THE PATH = 200
  # OF STEPS =   1

 Maximum number of steps reached.
 Calculation of REVERSE path complete.
 Reaction path calculation complete.
 
 Energies reported relative to the TS energy of        -751.163036
 --------------------------------------------------------------------------
    Summary of reaction path following
 --------------------------------------------------------------------------
                        Energy    RxCoord
   1                   -0.02697  -3.01149
   2                   -0.02690  -2.98137
   3                   -0.02683  -2.95125
   4                   -0.02676  -2.92114
   5                   -0.02668  -2.89102
   6                   -0.02660  -2.86090
   7                   -0.02652  -2.83078
   8                   -0.02644  -2.80067
   9                   -0.02636  -2.77055
  10                   -0.02627  -2.74043
  11                   -0.02618  -2.71031
  12                   -0.02609  -2.68020
  13                   -0.02600  -2.65008
  14                   -0.02591  -2.61996
  15                   -0.02581  -2.58984
  16                   -0.02571  -2.55973
  17                   -0.02561  -2.52961
  18                   -0.02550  -2.49949
  19                   -0.02539  -2.46937
  20                   -0.02528  -2.43926
  21                   -0.02517  -2.40914
  22                   -0.02505  -2.37902
  23                   -0.02493  -2.34890
  24                   -0.02481  -2.31878
  25                   -0.02468  -2.28867
  26                   -0.02455  -2.25855
  27                   -0.02442  -2.22843
  28                   -0.02428  -2.19831
  29                   -0.02414  -2.16820
  30                   -0.02400  -2.13808
  31                   -0.02385  -2.10796
  32                   -0.02369  -2.07784
  33                   -0.02354  -2.04773
  34                   -0.02337  -2.01761
  35                   -0.02321  -1.98749
  36                   -0.02303  -1.95737
  37                   -0.02286  -1.92726
  38                   -0.02267  -1.89714
  39                   -0.02249  -1.86702
  40                   -0.02230  -1.83690
  41                   -0.02210  -1.80678
  42                   -0.02190  -1.77667
  43                   -0.02169  -1.74655
  44                   -0.02147  -1.71643
  45                   -0.02125  -1.68631
  46                   -0.02103  -1.65620
  47                   -0.02079  -1.62608
  48                   -0.02056  -1.59596
  49                   -0.02031  -1.56584
  50                   -0.02006  -1.53573
  51                   -0.01981  -1.50561
  52                   -0.01955  -1.47549
  53                   -0.01928  -1.44537
  54                   -0.01900  -1.41526
  55                   -0.01872  -1.38514
  56                   -0.01844  -1.35502
  57                   -0.01814  -1.32490
  58                   -0.01784  -1.29479
  59                   -0.01754  -1.26467
  60                   -0.01723  -1.23455
  61                   -0.01691  -1.20443
  62                   -0.01658  -1.17432
  63                   -0.01625  -1.14420
  64                   -0.01592  -1.11408
  65                   -0.01557  -1.08396
  66                   -0.01522  -1.05385
  67                   -0.01487  -1.02373
  68                   -0.01451  -0.99361
  69                   -0.01414  -0.96349
  70                   -0.01376  -0.93337
  71                   -0.01338  -0.90326
  72                   -0.01299  -0.87314
  73                   -0.01259  -0.84302
  74                   -0.01218  -0.81290
  75                   -0.01177  -0.78279
  76                   -0.01135  -0.75267
  77                   -0.01092  -0.72255
  78                   -0.01048  -0.69243
  79                   -0.01004  -0.66232
  80                   -0.00958  -0.63220
  81                   -0.00911  -0.60209
  82                   -0.00864  -0.57198
  83                   -0.00815  -0.54188
  84                   -0.00764  -0.51180
  85                   -0.00710  -0.48173
  86                   -0.00652  -0.45165
  87                   -0.00590  -0.42156
  88                   -0.00525  -0.39146
  89                   -0.00459  -0.36136
  90                   -0.00392  -0.33125
  91                   -0.00328  -0.30114
  92                   -0.00267  -0.27102
  93                   -0.00210  -0.24091
  94                   -0.00160  -0.21080
  95                   -0.00116  -0.18068
  96                   -0.00080  -0.15057
  97                   -0.00050  -0.12045
  98                   -0.00028  -0.09034
  99                   -0.00012  -0.06023
 100                   -0.00003  -0.03011
 101                    0.00000   0.00000
 102                   -0.00002   0.03011
 103                   -0.00009   0.06022
 104                   -0.00020   0.09033
 105                   -0.00033   0.12044
 106                   -0.00050   0.15055
 107                   -0.00067   0.18066
 108                   -0.00086   0.21077
 109                   -0.00106   0.24088
 110                   -0.00126   0.27099
 111                   -0.00147   0.30110
 112                   -0.00168   0.33122
 113                   -0.00188   0.36133
 114                   -0.00209   0.39145
 115                   -0.00229   0.42156
 116                   -0.00250   0.45168
 117                   -0.00270   0.48179
 118                   -0.00290   0.51191
 119                   -0.00309   0.54203
 120                   -0.00328   0.57215
 121                   -0.00347   0.60226
 122                   -0.00366   0.63238
 123                   -0.00384   0.66250
 124                   -0.00402   0.69262
 125                   -0.00419   0.72273
 126                   -0.00436   0.75285
 127                   -0.00453   0.78297
 128                   -0.00469   0.81309
 129                   -0.00485   0.84320
 130                   -0.00501   0.87332
 131                   -0.00516   0.90344
 132                   -0.00530   0.93356
 133                   -0.00544   0.96367
 134                   -0.00558   0.99379
 135                   -0.00571   1.02391
 136                   -0.00584   1.05403
 137                   -0.00596   1.08414
 138                   -0.00608   1.11426
 139                   -0.00619   1.14438
 140                   -0.00630   1.17450
 141                   -0.00641   1.20462
 142                   -0.00651   1.23473
 143                   -0.00661   1.26485
 144                   -0.00670   1.29497
 145                   -0.00679   1.32509
 146                   -0.00687   1.35520
 147                   -0.00695   1.38532
 148                   -0.00703   1.41544
 149                   -0.00711   1.44556
 150                   -0.00718   1.47568
 151                   -0.00724   1.50579
 152                   -0.00731   1.53591
 153                   -0.00737   1.56603
 154                   -0.00742   1.59615
 155                   -0.00748   1.62627
 156                   -0.00753   1.65638
 157                   -0.00758   1.68650
 158                   -0.00763   1.71662
 159                   -0.00767   1.74674
 160                   -0.00771   1.77685
 161                   -0.00775   1.80697
 162                   -0.00779   1.83709
 163                   -0.00782   1.86721
 164                   -0.00786   1.89733
 165                   -0.00789   1.92744
 166                   -0.00792   1.95756
 167                   -0.00795   1.98768
 168                   -0.00797   2.01780
 169                   -0.00800   2.04791
 170                   -0.00802   2.07803
 171                   -0.00804   2.10815
 172                   -0.00807   2.13827
 173                   -0.00809   2.16839
 174                   -0.00811   2.19850
 175                   -0.00812   2.22862
 176                   -0.00814   2.25874
 177                   -0.00816   2.28886
 178                   -0.00818   2.31898
 179                   -0.00819   2.34909
 180                   -0.00821   2.37921
 181                   -0.00822   2.40933
 182                   -0.00823   2.43945
 183                   -0.00825   2.46956
 184                   -0.00826   2.49968
 185                   -0.00827   2.52980
 186                   -0.00828   2.55992
 187                   -0.00830   2.59003
 188                   -0.00831   2.62015
 189                   -0.00832   2.65027
 190                   -0.00833   2.68039
 191                   -0.00834   2.71051
 192                   -0.00835   2.74062
 193                   -0.00836   2.77074
 194                   -0.00836   2.80086
 195                   -0.00837   2.83098
 196                   -0.00838   2.86109
 197                   -0.00839   2.89121
 198                   -0.00840   2.92133
 199                   -0.00841   2.95145
 200                   -0.00841   2.98156
 201                   -0.00842   3.01168
 --------------------------------------------------------------------------
 
 Total number of points:                  200
 Total number of gradient calculations:   201
 Total number of Hessian calculations:    201
 IRC-IRC-IRC-IRC-IRC-IRC-IRC-IRC-IRC-IRC-IRC-IRC-IRC-IRC-IRC-IRC-IRC-IRC
 Leave Link  123 at Sun Apr 14 23:03:39 2024, MaxMem=   104857600 cpu:               0.0 elap:               0.0
 (Enter /opt/g16/l202.exe)
                          Input orientation:                          
 ---------------------------------------------------------------------
 Center     Atomic      Atomic             Coordinates (Angstroms)
 Number     Number       Type             X           Y           Z
 ---------------------------------------------------------------------
      1          1           0        1.312152   -1.064012   -1.225130
      2          1           0        2.270244    2.230147   -0.000692
      3          1           0        1.312079   -1.063128    1.225970
      4          1           0        2.569730    2.909877   -0.000893
      5         14           0        0.995275   -0.295441    0.000134
      6         17           0       -1.011389    0.149507   -0.000086
 ---------------------------------------------------------------------
                    Distance matrix (angstroms):
                    1          2          3          4          5
     1  H    0.000000
     2  H    3.642618   0.000000
     3  H    2.451100   3.642587   0.000000
     4  H    4.344197   0.742782   4.344151   0.000000
     5  Si   1.480670   2.829158   1.480670   3.571130   0.000000
     6  Cl   2.893476   3.885637   2.893475   4.521510   2.055402
                    6
     6  Cl   0.000000
 Symmetry turned off by external request.
 Stoichiometry    ClH4Si(2)
 Framework group  C1[X(ClH4Si)]
 Deg. of freedom    12
 Full point group                 C1      NOp   1
 Rotational constants (GHZ):          23.1290091           6.1588709           5.1646955
 Leave Link  202 at Sun Apr 14 23:03:39 2024, MaxMem=   104857600 cpu:               0.0 elap:               0.0
 (Enter /opt/g16/l601.exe)
 Leave Link  601 at Sun Apr 14 23:03:40 2024, MaxMem=   104857600 cpu:               0.0 elap:               0.0
 (Enter /opt/g16/l9999.exe)

 This type of calculation cannot be archived.


 IF AT FIRST YOU DON'T SUCCEED, TRY, TRY AGAIN.
 THEN GIVE UP;
 THERE'S NO USE BEING A DAMN FOOL ABOUT IT.

                                 -- W. C. FIELDS
 Job cpu time:       0 days  0 hours  0 minutes 37.1 seconds.
 Elapsed time:       0 days  0 hours  3 minutes  8.5 seconds.
 File lengths (MBytes):  RWF=      6 Int=      0 D2E=      0 Chk=      2 Scr=      1
 Normal termination of Gaussian 16 at Sun Apr 14 23:03:40 2024.
