 Entering Gaussian System, Link 0=g16
 Initial command:
 /opt/g16/l1.exe "/home/jh-li/scratch/g16/Gau-233770.inp" -scrdir="/home/jh-li/scratch/g16/"
 Entering Link 1 = /opt/g16/l1.exe PID=    233773.
  
 Copyright (c) 1988-2019, Gaussian, Inc.  All Rights Reserved.
  
 This is part of the Gaussian(R) 16 program.  It is based on
 the Gaussian(R) 09 system (copyright 2009, Gaussian, Inc.),
 the Gaussian(R) 03 system (copyright 2003, Gaussian, Inc.),
 the Gaussian(R) 98 system (copyright 1998, Gaussian, Inc.),
 the Gaussian(R) 94 system (copyright 1995, Gaussian, Inc.),
 the Gaussian 92(TM) system (copyright 1992, Gaussian, Inc.),
 the Gaussian 90(TM) system (copyright 1990, Gaussian, Inc.),
 the Gaussian 88(TM) system (copyright 1988, Gaussian, Inc.),
 the Gaussian 86(TM) system (copyright 1986, Carnegie Mellon
 University), and the Gaussian 82(TM) system (copyright 1983,
 Carnegie Mellon University). Gaussian is a federally registered
 trademark of Gaussian, Inc.
  
 This software contains proprietary and confidential information,
 including trade secrets, belonging to Gaussian, Inc.
  
 This software is provided under written license and may be
 used, copied, transmitted, or stored only in accord with that
 written license.
  
 The following legend is applicable only to US Government
 contracts under FAR:
  
                    RESTRICTED RIGHTS LEGEND
  
 Use, reproduction and disclosure by the US Government is
 subject to restrictions as set forth in subparagraphs (a)
 and (c) of the Commercial Computer Software - Restricted
 Rights clause in FAR 52.227-19.
  
 Gaussian, Inc.
 340 Quinnipiac St., Bldg. 40, Wallingford CT 06492
  
  
 ---------------------------------------------------------------
 Warning -- This program may not be used in any manner that
 competes with the business of Gaussian, Inc. or will provide
 assistance to any competitor of Gaussian, Inc.  The licensee
 of this program is prohibited from giving any competitor of
 Gaussian, Inc. access to this program.  By using this program,
 the user acknowledges that Gaussian, Inc. is engaged in the
 business of creating and licensing software in the field of
 computational chemistry and represents and warrants to the
 licensee that it is not a competitor of Gaussian, Inc. and that
 it will not use this program in any manner prohibited above.
 ---------------------------------------------------------------
  

 Cite this work as:
 Gaussian 16, Revision C.01,
 M. J. Frisch, G. W. Trucks, H. B. Schlegel, G. E. Scuseria, 
 M. A. Robb, J. R. Cheeseman, G. Scalmani, V. Barone, 
 G. A. Petersson, H. Nakatsuji, X. Li, M. Caricato, A. V. Marenich, 
 J. Bloino, B. G. Janesko, R. Gomperts, B. Mennucci, H. P. Hratchian, 
 J. V. Ortiz, A. F. Izmaylov, J. L. Sonnenberg, D. Williams-Young, 
 F. Ding, F. Lipparini, F. Egidi, J. Goings, B. Peng, A. Petrone, 
 T. Henderson, D. Ranasinghe, V. G. Zakrzewski, J. Gao, N. Rega, 
 G. Zheng, W. Liang, M. Hada, M. Ehara, K. Toyota, R. Fukuda, 
 J. Hasegawa, M. Ishida, T. Nakajima, Y. Honda, O. Kitao, H. Nakai, 
 T. Vreven, K. Throssell, J. A. Montgomery, Jr., J. E. Peralta, 
 F. Ogliaro, M. J. Bearpark, J. J. Heyd, E. N. Brothers, K. N. Kudin, 
 V. N. Staroverov, T. A. Keith, R. Kobayashi, J. Normand, 
 K. Raghavachari, A. P. Rendell, J. C. Burant, S. S. Iyengar, 
 J. Tomasi, M. Cossi, J. M. Millam, M. Klene, C. Adamo, R. Cammi, 
 J. W. Ochterski, R. L. Martin, K. Morokuma, O. Farkas, 
 J. B. Foresman, and D. J. Fox, Gaussian, Inc., Wallingford CT, 2019.
 
 ******************************************
 Gaussian 16:  ES64L-G16RevC.01  3-Jul-2019
                 6-Mar-2024 
 ******************************************
 %nproc=1
 Will use up to    1 processors via shared memory.
 %oldchk=ts1-opt-freq.chk
 Copying data from "ts1-opt-freq.chk" to current chk file "/home/jh-li/scratch/g16/Gau-233773.chk"
 IOpt=  2 FromEx=T IUOpen= 4 IOptOp= 5 NList=   0 IFRang= 0 IUIn= 4 IUOut= 2.
 ----------------------------------------------------------------------
 #p external="python3 -u ../pes/h5co_pes.py" irc=(calcall,stepsize=3,ma
 xpoint=100) geom=allcheck
 ----------------------------------------------------------------------
 1/6=10,10=4,18=10,26=1,29=7,38=1,39=3,42=100,44=3,71=1,172=1/1,23;
 2/12=2,29=1,40=1/2;
 3/11=9,14=-4,25=1,30=1,41=9900000,43=2,71=2,140=1/1;
 4/20=17,22=1002,24=3,113=1,114=1/2;
 6/7=2,8=2,9=2,10=2,18=1/1;
 7/25=1,44=-1/16;
 1/6=10,10=4,18=10,26=1,39=3,42=100,44=3,71=1/23(2);
 2/29=1/2;
 99/5=20/99;
 2/29=1/2;
 3/11=9,14=-2,25=1,30=1,41=9900000,43=2,71=2,140=1/1;
 4/16=2,20=17,22=1002,24=3,113=1,114=1/2;
 7/25=1,44=-1/16;
 1/6=10,10=4,18=10,26=1,39=3,42=100,44=3,71=1/23(-4);
 2/29=1/2;
 6/7=2,8=2,9=2,10=2,18=1/1;
 99/5=20/99;
 Leave Link    1 at Wed Mar  6 17:40:02 2024, MaxMem=   104857600 cpu:               0.0 elap:               0.0
 (Enter /opt/g16/l101.exe)
 Structure from the checkpoint file:  "/home/jh-li/scratch/g16/Gau-233773.chk"
 ----------------------
 H + CH3OH -> H2 + CH3O
 ----------------------
 Charge =  0 Multiplicity = 2
 Redundant internal coordinates found in file.  (old form).
 H,0,-1.6387175491,-0.0000616331,-1.5512417577
 H,0,-0.8267021336,0.0000596395,-1.2427454839
 H,0,0.8650259629,0.0001307668,1.2867929026
 H,0,-0.6466392878,-0.8983824618,1.0476224038
 H,0,-0.6468482612,0.8982759921,1.0476016648
 C,0,-0.0944252235,0.0000093182,0.7588581624
 O,0,0.2518838975,0.0000275378,-0.6041502789
 Recover connectivity data from disk.
 ITRead=  0  0  0  0  0  0  0
 MicOpt= -1 -1 -1 -1 -1 -1 -1
 NAtoms=      7 NQM=        7 NQMF=       0 NMMI=      0 NMMIF=      0
                NMic=       0 NMicF=      0.
                    Isotopes and Nuclear Properties:
 (Nuclear quadrupole moments (NQMom) in fm**2, nuclear magnetic moments (NMagM)
  in nuclear magnetons)

  Atom         1           2           3           4           5           6           7
 IAtWgt=           1           1           1           1           1          12          16
 AtmWgt=   1.0078250   1.0078250   1.0078250   1.0078250   1.0078250  12.0000000  15.9949146
 NucSpn=           1           1           1           1           1           0           0
 AtZEff=   1.0000000   1.0000000   1.0000000   1.0000000   1.0000000   3.6000000   5.6000000
 NQMom=    0.0000000   0.0000000   0.0000000   0.0000000   0.0000000   0.0000000   0.0000000
 NMagM=    2.7928460   2.7928460   2.7928460   2.7928460   2.7928460   0.0000000   0.0000000
 AtZNuc=   1.0000000   1.0000000   1.0000000   1.0000000   1.0000000   6.0000000   8.0000000
 Leave Link  101 at Wed Mar  6 17:40:02 2024, MaxMem=   104857600 cpu:               0.2 elap:               0.2
 (Enter /opt/g16/l123.exe)
 IRC-IRC-IRC-IRC-IRC-IRC-IRC-IRC-IRC-IRC-IRC-IRC-IRC-IRC-IRC-IRC-IRC-IRC
 ------------------------------------------------------------------------
 INPUT DATA FOR L123
 ------------------------------------------------------------------------
 GENERAL PARAMETERS:
 Follow reaction path in both directions.
 Maximum points per path      = 100
 Step size                    =   0.030 bohr
 Integration scheme           = HPC                                 
    Redo corrector integration= Yes                                 
    DWI Weight Power          =  2
    DWI will use Hessian update vectors when possible.
    Max correction cycles     =  10
 Initial Hessian              = CalcFC
 Hessian evaluation           = Analytic at all predictor steps
                              = Update at all corrector steps
 Hessian updating method      = Bofill                              
 ------------------------------------------------------------------------
 IRC-IRC-IRC-IRC-IRC-IRC-IRC-IRC-IRC-IRC-IRC-IRC-IRC-IRC-IRC-IRC-IRC-IRC
 Leave Link  123 at Wed Mar  6 17:40:02 2024, MaxMem=   104857600 cpu:               0.0 elap:               0.0
 (Enter /opt/g16/l202.exe)
                          Input orientation:                          
 ---------------------------------------------------------------------
 Center     Atomic      Atomic             Coordinates (Angstroms)
 Number     Number       Type             X           Y           Z
 ---------------------------------------------------------------------
      1          1           0       -1.638718   -0.000062   -1.551242
      2          1           0       -0.826702    0.000060   -1.242745
      3          1           0        0.865026    0.000131    1.286793
      4          1           0       -0.646639   -0.898382    1.047622
      5          1           0       -0.646848    0.898276    1.047602
      6          6           0       -0.094425    0.000009    0.758858
      7          8           0        0.251884    0.000028   -0.604150
 ---------------------------------------------------------------------
                    Distance matrix (angstroms):
                    1          2          3          4          5
     1  H    0.000000
     2  H    0.868642   0.000000
     3  H    3.784597   3.043108   0.000000
     4  H    2.923234   2.466862   1.774728   0.000000
     5  H    2.923149   2.466745   1.774723   1.796658   0.000000
     6  C    2.778741   2.131349   1.095108   1.093359   1.093356
     7  O    2.114558   1.253456   1.987866   2.083948   2.083952
                    6          7
     6  C    0.000000
     7  O    1.406315   0.000000
 Symmetry turned off by external request.
 Stoichiometry    CH5O(2)
 Framework group  C1[X(CH5O)]
 Deg. of freedom    15
 Full point group                 C1      NOp   1
 Rotational constants (GHZ):          65.2895528          22.7259675          18.9101393
 Leave Link  202 at Wed Mar  6 17:40:02 2024, MaxMem=   104857600 cpu:               0.0 elap:               0.0
 (Enter /opt/g16/l301.exe)
 Standard basis: STO-3G (5D, 7F)
 Ernie: Thresh=  0.10000D-02 Tol=  0.10000D-05 Strict=F.
    15 basis functions,    45 primitive gaussians,    15 cartesian basis functions
    10 alpha electrons        9 beta electrons
       nuclear repulsion energy        43.5781344664 Hartrees.
 IExCor=    0 DFT=F Ex=HF Corr=None ExCW=0 ScaHFX=  1.000000
 ScaDFX=  1.000000  1.000000  1.000000  1.000000 ScalE2=  1.000000  1.000000
 IRadAn=      5 IRanWt=     -1 IRanGd=            0 ICorTp=0 IEmpDi=  4
 NAtoms=    7 NActive=    7 NUniq=    7 SFac= 1.00D+00 NAtFMM=   60 NAOKFM=F Big=F
 Integral buffers will be    131072 words long.
 Raffenetti 2 integral format.
 Two-electron integral symmetry is turned off.
 Leave Link  301 at Wed Mar  6 17:40:02 2024, MaxMem=   104857600 cpu:               0.0 elap:               0.0
 (Enter /opt/g16/l402.exe)
 External calculation of energy, first and second derivatives.
 Running external command "python3 -u ../pes/h5co_pes.py R"
         input file       "/home/jh-li/scratch/g16/Gau-233773.EIn"
         output file      "/home/jh-li/scratch/g16/Gau-233773.EOu"
         message file     "/home/jh-li/scratch/g16/Gau-233773.EMs"
         fchk file        "/home/jh-li/scratch/g16/Gau-233773.EFC"
         mat. el file     "/home/jh-li/scratch/g16/Gau-233773.EUF"
 Recovered energy= -116.079524201     dipole=      0.000000000000      0.000000000000      0.000000000000
 NRF= 0 NRA=   0 NVA=   0 HaveQM=F NVQ=       0
 Convergence limit is  0.750E-04 MaxStp= 10000 StMxLn= 3.00D-04 StpMin= 1.00D-06.
 Convergence criteria             0.00011250 0.00007500 0.00045000 0.00030000
  Step  NS  ND Rises OKQ   Scale  Max. Force  RMS Force Max. Disp.  RMS Disp.     Energy   Flag
     1   0   0   F    T  1.00D+00 0.00000000 0.00000000 0.00000000 0.00000000 -116.0795242 ====
 Running external command "python3 -u ../pes/h5co_pes.py R"
         input file       "/home/jh-li/scratch/g16/Gau-233773.EIn"
         output file      "/home/jh-li/scratch/g16/Gau-233773.EOu"
         message file     "/home/jh-li/scratch/g16/Gau-233773.EMs"
         fchk file        "/home/jh-li/scratch/g16/Gau-233773.EFC"
         mat. el file     "/home/jh-li/scratch/g16/Gau-233773.EUF"
 Recovered energy= -116.079524201     dipole=      0.000000000000      0.000000000000      0.000000000000
 Energy=    -116.079524     NIter=   0.
 Dipole moment=       0.000000       0.000000       0.000000
 Leave Link  402 at Wed Mar  6 17:40:04 2024, MaxMem=   104857600 cpu:               0.1 elap:               2.0
 (Enter /opt/g16/l601.exe)
 Leave Link  601 at Wed Mar  6 17:40:04 2024, MaxMem=   104857600 cpu:               0.0 elap:               0.0
 (Enter /opt/g16/l716.exe)
 Dipole        = 0.00000000D+00 0.00000000D+00 0.00000000D+00
 -------------------------------------------------------------------
 Center     Atomic                   Forces (Hartrees/Bohr)
 Number     Number              X              Y              Z
 -------------------------------------------------------------------
      1        1          -0.000015777    0.000001039   -0.000011242
      2        1          -0.000003340   -0.000002045   -0.000001312
      3        1           0.000022129   -0.000000212    0.000000672
      4        1           0.000003932   -0.000004664    0.000001559
      5        1           0.000003827    0.000005052    0.000001548
      6        6          -0.000020968   -0.000000420    0.000039884
      7        8           0.000020877    0.000001252   -0.000035158
 -------------------------------------------------------------------
 Cartesian Forces:  Max     0.000039884 RMS     0.000014912
 Force constants in Cartesian coordinates: 
                1             2             3             4             5 
      1  0.118499D+00
      2  0.154890D-04  0.392890D-02
      3  0.425004D-01  0.573013D-05  0.224646D-01
      4 -0.266034D-01 -0.247529D-05 -0.451873D-02 -0.626896D-01
      5 -0.173329D-04 -0.667289D-02 -0.654473D-05  0.534649D-05  0.123397D-01
      6  0.851971D-02  0.136914D-05 -0.300953D-02 -0.630245D-01  0.000000D+00
      7 -0.541043D-02  0.000000D+00 -0.346804D-02  0.484218D-02  0.115803D-05
      8  0.000000D+00 -0.350222D-03  0.000000D+00  0.000000D+00 -0.130683D-03
      9 -0.328710D-02  0.000000D+00 -0.122446D-02  0.623417D-03  0.000000D+00
     10  0.180579D-02  0.442506D-03  0.763199D-03  0.123159D-02  0.136975D-02
     11  0.312040D-02  0.350253D-03  0.364972D-03 -0.505266D-02  0.162445D-02
     12  0.573489D-03  0.836664D-05  0.414036D-03 -0.286902D-02  0.764151D-03
     13  0.180687D-02 -0.442544D-03  0.763214D-03  0.123027D-02 -0.136988D-02
     14 -0.312036D-02  0.349419D-03 -0.364734D-03  0.505289D-02  0.162541D-02
     15  0.573948D-03 -0.793959D-05  0.414166D-03 -0.286973D-02 -0.764182D-03
     16  0.196191D-02  0.000000D+00 -0.821946D-04  0.734424D-02 -0.150984D-05
     17  0.000000D+00 -0.765536D-03  0.000000D+00  0.000000D+00 -0.362167D-02
     18  0.122817D-01  0.309846D-05  0.223929D-02 -0.186240D-01 -0.328174D-05
     19 -0.921138D-01 -0.127370D-04 -0.359755D-01  0.747627D-01  0.124776D-04
     20  0.170569D-05  0.315485D-02  0.000000D+00 -0.250471D-05 -0.515647D-02
     21 -0.611410D-01 -0.102471D-04 -0.212983D-01  0.912503D-01  0.981537D-05
                6             7             8             9            10 
      6  0.186669D-02
      7  0.457804D-02  0.265850D+00
      8  0.000000D+00  0.276252D-04  0.463395D-01
      9 -0.248494D-02  0.115343D+00  0.145895D-04  0.120553D+00
     10 -0.150281D-02 -0.143835D-01 -0.255540D-01  0.561016D-02  0.123434D+00
     11 -0.266559D-02  0.504659D-02 -0.826070D-03  0.120288D-03  0.124197D+00
     12 -0.310500D-02 -0.695459D-02 -0.141132D-01  0.469648D-02 -0.372450D-01
     13 -0.150441D-02 -0.143884D-01  0.255513D-01  0.561046D-02  0.577480D-02
     14  0.266537D-02 -0.504991D-02 -0.820868D-03 -0.118771D-03  0.174161D-01
     15 -0.310481D-02 -0.695786D-02  0.141121D-01  0.469563D-02 -0.502551D-02
     16 -0.123836D-01 -0.249706D+00 -0.264585D-04 -0.101375D+00 -0.111648D+00
     17  0.000000D+00 -0.255433D-04 -0.439958D-01 -0.133977D-04 -0.113957D+00
     18 -0.324916D-01 -0.924810D-01 -0.119207D-04 -0.884803D-01  0.289950D-01
     19  0.653654D-01  0.132002D-01  0.199491D-05 -0.225290D-01 -0.621593D-02
     20 -0.301659D-05  0.107388D-05 -0.224870D-03 -0.190748D-05 -0.391415D-02
     21  0.423356D-01 -0.100877D-01 -0.160802D-05 -0.377578D-01  0.841213D-02
               11            12            13            14            15 
     11  0.243579D+00
     12 -0.553737D-01  0.759408D-01
     13 -0.174111D-01 -0.502375D-02  0.123494D+00
     14 -0.146268D-01 -0.554905D-02 -0.124229D+00  0.243528D+00
     15  0.554806D-02  0.500269D-02 -0.372554D-01  0.553619D-01  0.759388D-01
     16 -0.112844D+00  0.254419D-01 -0.111703D+00  0.112877D+00  0.254503D-01
     17 -0.235149D+00  0.470164D-01  0.113990D+00 -0.235102D+00 -0.470071D-01
     18  0.422603D-01 -0.585749D-01  0.290038D-01 -0.422523D-01 -0.585743D-01
     19  0.293647D-02  0.260809D-01 -0.621656D-02 -0.293938D-02  0.260882D-01
     20  0.504972D-02  0.272474D-01  0.391228D-02  0.504875D-02 -0.272433D-01
     21  0.976189D-02 -0.243713D-01  0.841335D-02 -0.975869D-02 -0.243692D-01
               16            17            18            19            20 
     16  0.550953D+00
     17 -0.782743D-05  0.566741D+00
     18  0.680031D-02  0.000000D+00  0.437047D+00
     19 -0.871978D-01  0.116994D-05  0.340237D-01  0.103714D+00
     20  0.159779D-05 -0.480903D-01  0.361390D-05  0.000000D+00  0.402038D-01
     21  0.561690D-01  0.261874D-05 -0.201160D+00 -0.930498D-01 -0.378673D-05
               21 
     21  0.266606D+00
 Leave Link  716 at Wed Mar  6 17:40:04 2024, MaxMem=   104857600 cpu:               0.0 elap:               0.0
 (Enter /opt/g16/l123.exe)
 IRC-IRC-IRC-IRC-IRC-IRC-IRC-IRC-IRC-IRC-IRC-IRC-IRC-IRC-IRC-IRC-IRC-IRC
          ******** Start new reaction path calculation ********
 Current Structure is TS -> form Hessian eigenvectors.
                            Diagonalizing Hessian.
 Supplied step size of   0.0300 bohr.
    Integration on MW PES will use step size of   0.0313 sqrt(amu)*bohr.
 Point Number:   0          Path Number:   1
 Calculating another point on the path.
 Point Number  1 in FORWARD path direction.
 Using LQA Reaction Path Following.
 IRC-IRC-IRC-IRC-IRC-IRC-IRC-IRC-IRC-IRC-IRC-IRC-IRC-IRC-IRC-IRC-IRC-IRC
 Leave Link  123 at Wed Mar  6 17:40:04 2024, MaxMem=   104857600 cpu:               0.0 elap:               0.0
 (Enter /opt/g16/l202.exe)
                          Input orientation:                          
 ---------------------------------------------------------------------
 Center     Atomic      Atomic             Coordinates (Angstroms)
 Number     Number       Type             X           Y           Z
 ---------------------------------------------------------------------
      1          1           0       -1.638769   -0.000079   -1.552385
      2          1           0       -0.839566    0.000043   -1.252035
      3          1           0        0.865887    0.000113    1.285683
      4          1           0       -0.645869   -0.898733    1.046080
      5          1           0       -0.646078    0.898592    1.046059
      6          6           0       -0.093762   -0.000008    0.757555
      7          8           0        0.253347    0.000010   -0.604476
 ---------------------------------------------------------------------
                    Distance matrix (angstroms):
                    1          2          3          4          5
     1  H    0.000000
     2  H    0.853777   0.000000
     3  H    3.785226   3.057545   0.000000
     4  H    2.923261   2.475207   1.775033   0.000000
     5  H    2.923176   2.475089   1.775027   1.797325   0.000000
     6  C    2.779005   2.143519   1.095375   1.093515   1.093513
     7  O    2.116279   1.270351   1.986934   2.083426   2.083430
                    6          7
     6  C    0.000000
     7  O    1.405565   0.000000
 Symmetry turned off by external request.
 Stoichiometry    CH5O(2)
 Framework group  C1[X(CH5O)]
 Deg. of freedom    15
 Full point group                 C1      NOp   1
 Rotational constants (GHZ):          65.0156902          22.7243485          18.8876825
 Leave Link  202 at Wed Mar  6 17:40:04 2024, MaxMem=   104857600 cpu:               0.0 elap:               0.0
 (Enter /opt/g16/l301.exe)
 Standard basis: STO-3G (5D, 7F)
 Ernie: Thresh=  0.10000D-02 Tol=  0.10000D-05 Strict=F.
    15 basis functions,    45 primitive gaussians,    15 cartesian basis functions
    10 alpha electrons        9 beta electrons
       nuclear repulsion energy        43.5412370188 Hartrees.
 IExCor=    0 DFT=F Ex=HF Corr=None ExCW=0 ScaHFX=  1.000000
 ScaDFX=  1.000000  1.000000  1.000000  1.000000 ScalE2=  1.000000  1.000000
 IRadAn=      5 IRanWt=     -1 IRanGd=            0 ICorTp=0 IEmpDi=  4
 NAtoms=    7 NActive=    7 NUniq=    7 SFac= 1.00D+00 NAtFMM=   60 NAOKFM=F Big=F
 Integral buffers will be    131072 words long.
 Raffenetti 2 integral format.
 Two-electron integral symmetry is turned off.
 Leave Link  301 at Wed Mar  6 17:40:04 2024, MaxMem=   104857600 cpu:               0.1 elap:               0.1
 (Enter /opt/g16/l402.exe)
 External calculation of energy, first and second derivatives.
 Running external command "python3 -u ../pes/h5co_pes.py R"
         input file       "/home/jh-li/scratch/g16/Gau-233773.EIn"
         output file      "/home/jh-li/scratch/g16/Gau-233773.EOu"
         message file     "/home/jh-li/scratch/g16/Gau-233773.EMs"
         fchk file        "/home/jh-li/scratch/g16/Gau-233773.EFC"
         mat. el file     "/home/jh-li/scratch/g16/Gau-233773.EUF"
 Recovered energy= -116.079576805     dipole=      0.000000000000      0.000000000000      0.000000000000
 NRF= 0 NRA=   0 NVA=   0 HaveQM=F NVQ=       0
 Convergence limit is  0.750E-04 MaxStp= 10000 StMxLn= 3.00D-04 StpMin= 1.00D-06.
 Convergence criteria             0.00011250 0.00007500 0.00045000 0.00030000
  Step  NS  ND Rises OKQ   Scale  Max. Force  RMS Force Max. Disp.  RMS Disp.     Energy   Flag
     1   0   0   F    T  1.00D+00 0.00000000 0.00000000 0.00000000 0.00000000 -116.0795768 ====
 Running external command "python3 -u ../pes/h5co_pes.py R"
         input file       "/home/jh-li/scratch/g16/Gau-233773.EIn"
         output file      "/home/jh-li/scratch/g16/Gau-233773.EOu"
         message file     "/home/jh-li/scratch/g16/Gau-233773.EMs"
         fchk file        "/home/jh-li/scratch/g16/Gau-233773.EFC"
         mat. el file     "/home/jh-li/scratch/g16/Gau-233773.EUF"
 Recovered energy= -116.079576805     dipole=      0.000000000000      0.000000000000      0.000000000000
 Energy=    -116.079577     NIter=   0.
 Dipole moment=       0.000000       0.000000       0.000000
 Leave Link  402 at Wed Mar  6 17:40:06 2024, MaxMem=   104857600 cpu:               0.1 elap:               2.0
 (Enter /opt/g16/l716.exe)
 Dipole        = 0.00000000D+00 0.00000000D+00 0.00000000D+00
 -------------------------------------------------------------------
 Center     Atomic                   Forces (Hartrees/Bohr)
 Number     Number              X              Y              Z
 -------------------------------------------------------------------
      1        1          -0.000438261    0.000001016   -0.000132711
      2        1          -0.002567840   -0.000001927   -0.001634083
      3        1           0.000066328   -0.000000206   -0.000001673
      4        1           0.000032692   -0.000076211   -0.000095920
      5        1           0.000032561    0.000076604   -0.000095951
      6        6           0.000080110   -0.000000430   -0.000505677
      7        8           0.002808692    0.000001156    0.002461282
 -------------------------------------------------------------------
 Cartesian Forces:  Max     0.002808692 RMS     0.001062771
 Force constants in Cartesian coordinates: 
                1             2             3             4             5 
      1  0.134190D+00
      2  0.181551D-04  0.381876D-02
      3  0.480832D-01  0.667334D-05  0.242842D-01
      4 -0.451746D-01 -0.541142D-05 -0.116555D-01 -0.418745D-01
      5 -0.199022D-04 -0.658534D-02 -0.743496D-05  0.819831D-05  0.107328D-01
      6  0.128155D-02  0.000000D+00 -0.578128D-02 -0.533817D-01  0.146537D-05
      7 -0.519633D-02  0.000000D+00 -0.339859D-02  0.453841D-02  0.116048D-05
      8  0.000000D+00 -0.355388D-03  0.000000D+00  0.000000D+00 -0.121665D-03
      9 -0.331570D-02  0.000000D+00 -0.120941D-02  0.836991D-03  0.000000D+00
     10  0.174379D-02  0.449615D-03  0.776510D-03  0.113701D-02  0.133090D-02
     11  0.298918D-02  0.357669D-03  0.342194D-03 -0.502973D-02  0.159957D-02
     12  0.625009D-03  0.221396D-04  0.413600D-03 -0.278984D-02  0.713886D-03
     13  0.174488D-02 -0.449664D-03  0.776528D-03  0.113560D-02 -0.133101D-02
     14 -0.298919D-02  0.356822D-03 -0.341966D-03  0.503007D-02  0.160056D-02
     15  0.625471D-03 -0.216787D-04  0.413727D-03 -0.279053D-02 -0.713971D-03
     16  0.189401D-02  0.000000D+00 -0.125896D-03  0.762996D-02 -0.149821D-05
     17  0.000000D+00 -0.824411D-03  0.000000D+00 -0.105798D-05 -0.349848D-02
     18  0.114265D-01  0.298512D-05  0.203477D-02 -0.170304D-01 -0.316666D-05
     19 -0.892498D-01 -0.124519D-04 -0.344726D-01  0.727124D-01  0.121560D-04
     20  0.160608D-05  0.322684D-02  0.000000D+00 -0.243425D-05 -0.371985D-02
     21 -0.587044D-01 -0.100207D-04 -0.201545D-01  0.867773D-01  0.960930D-05
                6             7             8             9            10 
      6  0.290953D-02
      7  0.427229D-02  0.265590D+00
      8  0.000000D+00  0.275998D-04  0.462429D-01
      9 -0.225962D-02  0.115457D+00  0.146069D-04  0.120207D+00
     10 -0.153241D-02 -0.144716D-01 -0.255915D-01  0.567602D-02  0.123376D+00
     11 -0.264995D-02  0.522096D-02 -0.100738D-02  0.127825D-03  0.124405D+00
     12 -0.301521D-02 -0.686794D-02 -0.141511D-01  0.482691D-02 -0.372931D-01
     13 -0.153404D-02 -0.144765D-01  0.255888D-01  0.567630D-02  0.564615D-02
     14  0.264983D-02 -0.522422D-02 -0.100222D-02 -0.126286D-03  0.174679D-01
     15 -0.301501D-02 -0.687119D-02  0.141500D-01  0.482608D-02 -0.515683D-02
     16 -0.110932D-01 -0.249195D+00 -0.264714D-04 -0.102137D+00 -0.111156D+00
     17  0.000000D+00 -0.255801D-04 -0.433713D-01 -0.134700D-04 -0.114241D+00
     18 -0.311392D-01 -0.921023D-01 -0.118705D-04 -0.883156D-01  0.290383D-01
     19  0.620282D-01  0.132140D-01  0.200671D-05 -0.221970D-01 -0.627785D-02
     20 -0.291392D-05  0.107620D-05 -0.394025D-03 -0.189520D-05 -0.382061D-02
     21  0.423051D-01 -0.105168D-01 -0.166713D-05 -0.380785D-01  0.849874D-02
               11            12            13            14            15 
     11  0.243858D+00
     12 -0.555306D-01  0.755870D-01
     13 -0.174629D-01 -0.515508D-02  0.123437D+00
     14 -0.147473D-01 -0.543232D-02 -0.124438D+00  0.243807D+00
     15  0.543128D-02  0.509285D-02 -0.373036D-01  0.555188D-01  0.755849D-01
     16 -0.113070D+00  0.256826D-01 -0.111210D+00  0.113103D+00  0.256912D-01
     17 -0.234970D+00  0.473274D-01  0.114274D+00 -0.234924D+00 -0.473180D-01
     18  0.419902D-01 -0.582455D-01  0.290471D-01 -0.419822D-01 -0.582449D-01
     19  0.294090D-02  0.258020D-01 -0.627841D-02 -0.294385D-02  0.258092D-01
     20  0.491167D-02  0.270510D-01  0.381872D-02  0.491066D-02 -0.270468D-01
     21  0.103053D-01 -0.246566D-01  0.850012D-02 -0.103021D-01 -0.246546D-01
               16            17            18            19            20 
     16  0.548241D+00
     17 -0.791201D-05  0.565176D+00
     18  0.570130D-02  0.000000D+00  0.435392D+00
     19 -0.861993D-01  0.118047D-05  0.339164D-01  0.102019D+00
     20  0.158161D-05 -0.475703D-01  0.360558D-05  0.000000D+00  0.386203D-01
     21  0.563010D-01  0.274644D-05 -0.201477D+00 -0.908809D-01 -0.381754D-05
               21 
     21  0.266702D+00
 Leave Link  716 at Wed Mar  6 17:40:06 2024, MaxMem=   104857600 cpu:               0.0 elap:               0.0
 (Enter /opt/g16/l123.exe)
 IRC-IRC-IRC-IRC-IRC-IRC-IRC-IRC-IRC-IRC-IRC-IRC-IRC-IRC-IRC-IRC-IRC-IRC
 Pt  1 Step number   1 out of a maximum of  10
 Using modified Bulirsch-Stoer corrector integration.
   Using distance weighted interpolants to fit PES.
 PreDWI: IReCr0= 2 IReCr1= 1 IReCr2= 1 IReCr3= 1
 Modified Bulirsch-Stoer Extrapolation Cycles:
    EPS =    0.000010000000000
    Cycle     1 NS=    48
      PEZero:  N= 2 I= 1 D=  8.14D-05 Err=  1.95D-04
    Cycle     2 NS=    64 Truncation Error =  0.000195471
      PEZero:  N= 3 I= 2 D=  8.14D-05 Err=  1.30D-04
      PEZero:  N= 3 I= 1 D=  1.63D-04 Err=  1.18D-08
    Cycle     3 NS=    96 Truncation Error =  0.000000012
 BS completed in    3 cycles and     208 integration steps.
 Maximum DWI energy   std dev =  0.000000156 at pt    34
 Maximum DWI gradient std dev =  0.018793121 at pt    22
 SUMMARY OF CORRECTOR INTEGRATION:
   Predictor End Point Energy =  -116.079577
   Old End Point Energy       =  -116.079577
   Corrected End Point Energy =  -116.079577
   Predictor End-Start Dist.  =     0.031251
   Old End-Start Dist.        =     0.031251
   New End-Start Dist.        =     0.031240
   New End-Old End Dist.      =     0.000713
 CORRECTOR INTEGRATION CONVERGENCE:
   Recorrection delta-x convergence threshold:    0.010000
   Delta-x Convergence Met
 Point Number:   1          Path Number:   1
                    CURRENT STRUCTURE
                Cartesian Coordinates (Ang):                
 ---------------------------------------------------------------------
 Center     Atomic                     Coordinates (Angstroms)
 Number     Number                        X           Y           Z
 ---------------------------------------------------------------------
      1          1                   -1.639098   -0.000076   -1.552529
      2          1                   -0.839500    0.000036   -1.252066
      3          1                    0.865920    0.000113    1.285678
      4          1                   -0.645855   -0.898749    1.046078
      5          1                   -0.646064    0.898608    1.046057
      6          6                   -0.093763   -0.000008    0.757565
      7          8                    0.253363    0.000010   -0.604473
 ---------------------------------------------------------------------
   CHANGE IN THE REACTION COORDINATE =    0.03124
   NET REACTION COORDINATE UP TO THIS POINT =    0.03124
  # OF POINTS ALONG THE PATH =   1
  # OF STEPS =   1

 Calculating another point on the path.
 Point Number  2 in FORWARD path direction.
 Using LQA Reaction Path Following.
   LQA: T_Est iteration completed in    3 iterations.
 IRC-IRC-IRC-IRC-IRC-IRC-IRC-IRC-IRC-IRC-IRC-IRC-IRC-IRC-IRC-IRC-IRC-IRC
 Leave Link  123 at Wed Mar  6 17:40:06 2024, MaxMem=   104857600 cpu:               0.0 elap:               0.0
 (Enter /opt/g16/l202.exe)
                          Input orientation:                          
 ---------------------------------------------------------------------
 Center     Atomic      Atomic             Coordinates (Angstroms)
 Number     Number       Type             X           Y           Z
 ---------------------------------------------------------------------
      1          1           0       -1.640908   -0.000072   -1.553047
      2          1           0       -0.852720    0.000030   -1.260392
      3          1           0        0.866147    0.000112    1.285649
      4          1           0       -0.645686   -0.899102    1.045590
      5          1           0       -0.645895    0.898962    1.045569
      6          6           0       -0.093718   -0.000008    0.757346
      7          8           0        0.254244    0.000011   -0.603689
 ---------------------------------------------------------------------
                    Distance matrix (angstroms):
                    1          2          3          4          5
     1  H    0.000000
     2  H    0.840766   0.000000
     3  H    3.787284   3.071942   0.000000
     4  H    2.924318   2.483718   1.775346   0.000000
     5  H    2.924229   2.483608   1.775342   1.798065   0.000000
     6  C    2.780595   2.155771   1.095648   1.093674   1.093672
     7  O    2.119643   1.287101   1.985956   2.082883   2.082886
                    6          7
     6  C    0.000000
     7  O    1.404811   0.000000
 Symmetry turned off by external request.
 Stoichiometry    CH5O(2)
 Framework group  C1[X(CH5O)]
 Deg. of freedom    15
 Full point group                 C1      NOp   1
 Rotational constants (GHZ):          64.7020095          22.7205433          18.8603829
 Leave Link  202 at Wed Mar  6 17:40:06 2024, MaxMem=   104857600 cpu:               0.0 elap:               0.0
 (Enter /opt/g16/l301.exe)
 Standard basis: STO-3G (5D, 7F)
 Ernie: Thresh=  0.10000D-02 Tol=  0.10000D-05 Strict=F.
    15 basis functions,    45 primitive gaussians,    15 cartesian basis functions
    10 alpha electrons        9 beta electrons
       nuclear repulsion energy        43.5027466724 Hartrees.
 IExCor=    0 DFT=F Ex=HF Corr=None ExCW=0 ScaHFX=  1.000000
 ScaDFX=  1.000000  1.000000  1.000000  1.000000 ScalE2=  1.000000  1.000000
 IRadAn=      5 IRanWt=     -1 IRanGd=            0 ICorTp=0 IEmpDi=  4
 NAtoms=    7 NActive=    7 NUniq=    7 SFac= 1.00D+00 NAtFMM=   60 NAOKFM=F Big=F
 Integral buffers will be    131072 words long.
 Raffenetti 2 integral format.
 Two-electron integral symmetry is turned off.
 Leave Link  301 at Wed Mar  6 17:40:06 2024, MaxMem=   104857600 cpu:               0.0 elap:               0.1
 (Enter /opt/g16/l402.exe)
 External calculation of energy, first and second derivatives.
 Running external command "python3 -u ../pes/h5co_pes.py R"
         input file       "/home/jh-li/scratch/g16/Gau-233773.EIn"
         output file      "/home/jh-li/scratch/g16/Gau-233773.EOu"
         message file     "/home/jh-li/scratch/g16/Gau-233773.EMs"
         fchk file        "/home/jh-li/scratch/g16/Gau-233773.EFC"
         mat. el file     "/home/jh-li/scratch/g16/Gau-233773.EUF"
 Recovered energy= -116.079720879     dipole=      0.000000000000      0.000000000000      0.000000000000
 NRF= 0 NRA=   0 NVA=   0 HaveQM=F NVQ=       0
 Convergence limit is  0.750E-04 MaxStp= 10000 StMxLn= 3.00D-04 StpMin= 1.00D-06.
 Convergence criteria             0.00011250 0.00007500 0.00045000 0.00030000
  Step  NS  ND Rises OKQ   Scale  Max. Force  RMS Force Max. Disp.  RMS Disp.     Energy   Flag
     1   0   0   F    T  1.00D+00 0.00000000 0.00000000 0.00000000 0.00000000 -116.0797209 ====
 Running external command "python3 -u ../pes/h5co_pes.py R"
         input file       "/home/jh-li/scratch/g16/Gau-233773.EIn"
         output file      "/home/jh-li/scratch/g16/Gau-233773.EOu"
         message file     "/home/jh-li/scratch/g16/Gau-233773.EMs"
         fchk file        "/home/jh-li/scratch/g16/Gau-233773.EFC"
         mat. el file     "/home/jh-li/scratch/g16/Gau-233773.EUF"
 Recovered energy= -116.079720879     dipole=      0.000000000000      0.000000000000      0.000000000000
 Energy=    -116.079721     NIter=   0.
 Dipole moment=       0.000000       0.000000       0.000000
 Leave Link  402 at Wed Mar  6 17:40:08 2024, MaxMem=   104857600 cpu:               0.0 elap:               2.0
 (Enter /opt/g16/l716.exe)
 Dipole        = 0.00000000D+00 0.00000000D+00 0.00000000D+00
 -------------------------------------------------------------------
 Center     Atomic                   Forces (Hartrees/Bohr)
 Number     Number              X              Y              Z
 -------------------------------------------------------------------
      1        1          -0.000942365    0.000000765   -0.000293835
      2        1          -0.004616641   -0.000001490   -0.002987499
      3        1           0.000075922   -0.000000127   -0.000002846
      4        1           0.000059704   -0.000130662   -0.000181379
      5        1           0.000059792    0.000130750   -0.000181420
      6        6           0.000214556   -0.000000131   -0.000959668
      7        8           0.005166227    0.000000897    0.004601257
 -------------------------------------------------------------------
 Cartesian Forces:  Max     0.005166227 RMS     0.001953681
 Force constants in Cartesian coordinates: 
                1             2             3             4             5 
      1  0.149558D+00
      2  0.175859D-04  0.361286D-02
      3  0.534125D-01  0.642148D-05  0.258420D-01
      4 -0.639028D-01 -0.714148D-05 -0.187277D-01 -0.197626D-01
      5 -0.183664D-04 -0.638367D-02 -0.678261D-05  0.876562D-05  0.923471D-02
      6 -0.594241D-02  0.000000D+00 -0.838263D-02 -0.432529D-01  0.177393D-05
      7 -0.495257D-02  0.000000D+00 -0.331066D-02  0.425096D-02  0.000000D+00
      8  0.000000D+00 -0.358767D-03  0.000000D+00  0.000000D+00 -0.112003D-03
      9 -0.332614D-02  0.000000D+00 -0.118798D-02  0.105576D-02  0.000000D+00
     10  0.166923D-02  0.454358D-03  0.786081D-03  0.102822D-02  0.129111D-02
     11  0.282716D-02  0.362600D-03  0.308891D-03 -0.498349D-02  0.157116D-02
     12  0.641334D-03  0.347146D-04  0.400900D-03 -0.267111D-02  0.669913D-03
     13  0.167023D-02 -0.454396D-03  0.786060D-03  0.102681D-02 -0.129123D-02
     14 -0.282721D-02  0.361898D-03 -0.308667D-03  0.498386D-02  0.157204D-02
     15  0.641744D-03 -0.343097D-04  0.400996D-03 -0.267170D-02 -0.670016D-03
     16  0.185169D-02  0.000000D+00 -0.156858D-03  0.783725D-02 -0.111175D-05
     17  0.000000D+00 -0.872898D-03  0.000000D+00  0.000000D+00 -0.337498D-02
     18  0.105296D-01  0.235335D-05  0.181879D-02 -0.154123D-01 -0.247659D-05
     19 -0.859360D-01 -0.101895D-04 -0.328041D-01  0.696115D-01  0.990178D-05
     20  0.000000D+00  0.327312D-02  0.000000D+00 -0.147437D-05 -0.249991D-02
     21 -0.559349D-01 -0.813409D-05 -0.188899D-01  0.816454D-01  0.795758D-05
                6             7             8             9            10 
      6  0.442312D-02
      7  0.398907D-02  0.265275D+00
      8  0.000000D+00  0.273917D-04  0.461345D-01
      9 -0.204332D-02  0.115534D+00  0.144987D-04  0.119867D+00
     10 -0.156773D-02 -0.145450D-01 -0.256102D-01  0.574417D-02  0.123260D+00
     11 -0.261970D-02  0.540285D-02 -0.119006D-02  0.144012D-03  0.124556D+00
     12 -0.290753D-02 -0.679541D-02 -0.141837D-01  0.494405D-02 -0.373271D-01
     13 -0.156926D-02 -0.145498D-01  0.256075D-01  0.574439D-02  0.551841D-02
     14  0.261960D-02 -0.540613D-02 -0.118497D-02 -0.142478D-03  0.175215D-01
     15 -0.290734D-02 -0.679862D-02  0.141826D-01  0.494324D-02 -0.528339D-02
     16 -0.992343D-02 -0.248654D+00 -0.262198D-04 -0.102846D+00 -0.110620D+00
     17  0.000000D+00 -0.253987D-04 -0.427315D-01 -0.133625D-04 -0.114488D+00
     18 -0.297686D-01 -0.916981D-01 -0.116912D-04 -0.881091D-01  0.290327D-01
     19  0.582997D-01  0.131784D-01  0.196603D-05 -0.219097D-01 -0.631281D-02
     20 -0.198655D-05  0.114748D-05 -0.566292D-03 -0.195784D-05 -0.372480D-02
     21  0.415888D-01 -0.109480D-01 -0.170745D-05 -0.384164D-01  0.862257D-02
               11            12            13            14            15 
     11  0.244061D+00
     12 -0.556568D-01  0.752212D-01
     13 -0.175165D-01 -0.528166D-02  0.123320D+00
     14 -0.148473D-01 -0.532520D-02 -0.124588D+00  0.244010D+00
     15  0.532418D-02  0.515860D-02 -0.373374D-01  0.556447D-01  0.752191D-01
     16 -0.113248D+00  0.259246D-01 -0.110674D+00  0.113280D+00  0.259330D-01
     17 -0.234736D+00  0.476018D-01  0.114519D+00 -0.234689D+00 -0.475920D-01
     18  0.416631D-01 -0.578882D-01  0.290410D-01 -0.416545D-01 -0.578874D-01
     19  0.295597D-02  0.255127D-01 -0.631327D-02 -0.295885D-02  0.255198D-01
     20  0.478042D-02  0.268596D-01  0.372290D-02  0.477941D-02 -0.268554D-01
     21  0.108524D-01 -0.249258D-01  0.862422D-02 -0.108495D-01 -0.249240D-01
               16            17            18            19            20 
     16  0.545395D+00
     17 -0.714767D-05  0.563458D+00
     18  0.461441D-02  0.000000D+00  0.433833D+00
     19 -0.851311D-01  0.000000D+00  0.338871D-01  0.100851D+00
     20  0.111985D-05 -0.470343D-01  0.336020D-05  0.000000D+00  0.372527D-01
     21  0.564737D-01  0.296316D-05 -0.201993D+00 -0.884991D-01 -0.403528D-05
               21 
     21  0.267547D+00
 Leave Link  716 at Wed Mar  6 17:40:08 2024, MaxMem=   104857600 cpu:               0.0 elap:               0.0
 (Enter /opt/g16/l123.exe)
 IRC-IRC-IRC-IRC-IRC-IRC-IRC-IRC-IRC-IRC-IRC-IRC-IRC-IRC-IRC-IRC-IRC-IRC
 Pt  2 Step number   1 out of a maximum of  10
 Using modified Bulirsch-Stoer corrector integration.
   Using distance weighted interpolants to fit PES.
 PreDWI: IReCr0= 2 IReCr1= 1 IReCr2= 1 IReCr3= 1
 Modified Bulirsch-Stoer Extrapolation Cycles:
    EPS =    0.000010000000000
    Cycle     1 NS=    48
      PEZero:  N= 2 I= 1 D=  1.63D-04 Err=  8.47D-06
    Cycle     2 NS=    64 Truncation Error =  0.000008469
 BS completed in    2 cycles and     112 integration steps.
 Maximum DWI energy   std dev =  0.000000202 at pt     8
 Maximum DWI gradient std dev =  0.013671086 at pt    16
 SUMMARY OF CORRECTOR INTEGRATION:
   Predictor End Point Energy =  -116.079721
   Old End Point Energy       =  -116.079721
   Corrected End Point Energy =  -116.079721
   Predictor End-Start Dist.  =     0.031240
   Old End-Start Dist.        =     0.031240
   New End-Start Dist.        =     0.031235
   New End-Old End Dist.      =     0.000316
 CORRECTOR INTEGRATION CONVERGENCE:
   Recorrection delta-x convergence threshold:    0.010000
   Delta-x Convergence Met
 Point Number:   2          Path Number:   1
                    CURRENT STRUCTURE
                Cartesian Coordinates (Ang):                
 ---------------------------------------------------------------------
 Center     Atomic                     Coordinates (Angstroms)
 Number     Number                        X           Y           Z
 ---------------------------------------------------------------------
      1          1                   -1.641055   -0.000072   -1.553102
      2          1                   -0.852675    0.000030   -1.260403
      3          1                    0.866145    0.000112    1.285651
      4          1                   -0.645686   -0.899105    1.045586
      5          1                   -0.645895    0.898965    1.045565
      6          6                   -0.093717   -0.000008    0.757345
      7          8                    0.254250    0.000011   -0.603684
 ---------------------------------------------------------------------
   CHANGE IN THE REACTION COORDINATE =    0.03124
   NET REACTION COORDINATE UP TO THIS POINT =    0.06247
  # OF POINTS ALONG THE PATH =   2
  # OF STEPS =   1

 Calculating another point on the path.
 Point Number  3 in FORWARD path direction.
 Using LQA Reaction Path Following.
   LQA: T_Est iteration completed in    3 iterations.
 IRC-IRC-IRC-IRC-IRC-IRC-IRC-IRC-IRC-IRC-IRC-IRC-IRC-IRC-IRC-IRC-IRC-IRC
 Leave Link  123 at Wed Mar  6 17:40:08 2024, MaxMem=   104857600 cpu:               0.0 elap:               0.0
 (Enter /opt/g16/l202.exe)
                          Input orientation:                          
 ---------------------------------------------------------------------
 Center     Atomic      Atomic             Coordinates (Angstroms)
 Number     Number       Type             X           Y           Z
 ---------------------------------------------------------------------
      1          1           0       -1.643791   -0.000071   -1.553963
      2          1           0       -0.865598    0.000027   -1.268801
      3          1           0        0.866343    0.000112    1.285651
      4          1           0       -0.645514   -0.899465    1.045071
      5          1           0       -0.645723    0.899325    1.045049
      6          6           0       -0.093665   -0.000008    0.757119
      7          8           0        0.255166    0.000011   -0.602867
 ---------------------------------------------------------------------
                    Distance matrix (angstroms):
                    1          2          3          4          5
     1  H    0.000000
     2  H    0.828795   0.000000
     3  H    3.790011   3.086235   0.000000
     4  H    2.925823   2.492293   1.775621   0.000000
     5  H    2.925734   2.492185   1.775617   1.798789   0.000000
     6  C    2.782803   2.168002   1.095884   1.093835   1.093834
     7  O    2.123822   1.303680   1.984953   2.082301   2.082305
                    6          7
     6  C    0.000000
     7  O    1.404010   0.000000
 Symmetry turned off by external request.
 Stoichiometry    CH5O(2)
 Framework group  C1[X(CH5O)]
 Deg. of freedom    15
 Full point group                 C1      NOp   1
 Rotational constants (GHZ):          64.3723311          22.7165718          18.8313836
 Leave Link  202 at Wed Mar  6 17:40:08 2024, MaxMem=   104857600 cpu:               0.0 elap:               0.0
 (Enter /opt/g16/l301.exe)
 Standard basis: STO-3G (5D, 7F)
 Ernie: Thresh=  0.10000D-02 Tol=  0.10000D-05 Strict=F.
    15 basis functions,    45 primitive gaussians,    15 cartesian basis functions
    10 alpha electrons        9 beta electrons
       nuclear repulsion energy        43.4651500938 Hartrees.
 IExCor=    0 DFT=F Ex=HF Corr=None ExCW=0 ScaHFX=  1.000000
 ScaDFX=  1.000000  1.000000  1.000000  1.000000 ScalE2=  1.000000  1.000000
 IRadAn=      5 IRanWt=     -1 IRanGd=            0 ICorTp=0 IEmpDi=  4
 NAtoms=    7 NActive=    7 NUniq=    7 SFac= 1.00D+00 NAtFMM=   60 NAOKFM=F Big=F
 Integral buffers will be    131072 words long.
 Raffenetti 2 integral format.
 Two-electron integral symmetry is turned off.
 Leave Link  301 at Wed Mar  6 17:40:08 2024, MaxMem=   104857600 cpu:               0.0 elap:               0.1
 (Enter /opt/g16/l402.exe)
 External calculation of energy, first and second derivatives.
 Running external command "python3 -u ../pes/h5co_pes.py R"
         input file       "/home/jh-li/scratch/g16/Gau-233773.EIn"
         output file      "/home/jh-li/scratch/g16/Gau-233773.EOu"
         message file     "/home/jh-li/scratch/g16/Gau-233773.EMs"
         fchk file        "/home/jh-li/scratch/g16/Gau-233773.EFC"
         mat. el file     "/home/jh-li/scratch/g16/Gau-233773.EUF"
 Recovered energy= -116.079938695     dipole=      0.000000000000      0.000000000000      0.000000000000
 NRF= 0 NRA=   0 NVA=   0 HaveQM=F NVQ=       0
 Convergence limit is  0.750E-04 MaxStp= 10000 StMxLn= 3.00D-04 StpMin= 1.00D-06.
 Convergence criteria             0.00011250 0.00007500 0.00045000 0.00030000
  Step  NS  ND Rises OKQ   Scale  Max. Force  RMS Force Max. Disp.  RMS Disp.     Energy   Flag
     1   0   0   F    T  1.00D+00 0.00000000 0.00000000 0.00000000 0.00000000 -116.0799387 ====
 Running external command "python3 -u ../pes/h5co_pes.py R"
         input file       "/home/jh-li/scratch/g16/Gau-233773.EIn"
         output file      "/home/jh-li/scratch/g16/Gau-233773.EOu"
         message file     "/home/jh-li/scratch/g16/Gau-233773.EMs"
         fchk file        "/home/jh-li/scratch/g16/Gau-233773.EFC"
         mat. el file     "/home/jh-li/scratch/g16/Gau-233773.EUF"
 Recovered energy= -116.079938695     dipole=      0.000000000000      0.000000000000      0.000000000000
 Energy=    -116.079939     NIter=   0.
 Dipole moment=       0.000000       0.000000       0.000000
 Leave Link  402 at Wed Mar  6 17:40:10 2024, MaxMem=   104857600 cpu:               0.0 elap:               2.0
 (Enter /opt/g16/l716.exe)
 Dipole        = 0.00000000D+00 0.00000000D+00 0.00000000D+00
 -------------------------------------------------------------------
 Center     Atomic                   Forces (Hartrees/Bohr)
 Number     Number              X              Y              Z
 -------------------------------------------------------------------
      1        1          -0.001683911    0.000000638   -0.000548805
      2        1          -0.006124305   -0.000001294   -0.004082246
      3        1           0.000090822   -0.000000115    0.000008173
      4        1           0.000084315   -0.000179284   -0.000257859
      5        1           0.000084387    0.000179377   -0.000257898
      6        6           0.000334273   -0.000000129   -0.001320458
      7        8           0.007233931    0.000000809    0.006453047
 -------------------------------------------------------------------
 Cartesian Forces:  Max     0.007233931 RMS     0.002702339
 Force constants in Cartesian coordinates: 
                1             2             3             4             5 
      1  0.165156D+00
      2  0.189695D-04  0.321711D-02
      3  0.587148D-01  0.686112D-05  0.271325D-01
      4 -0.831724D-01 -0.938726D-05 -0.258783D-01  0.375964D-02
      5 -0.194691D-04 -0.598152D-02 -0.710291D-05  0.106750D-04  0.769760D-02
      6 -0.133071D-01 -0.160327D-05 -0.107714D-01 -0.325948D-01  0.246416D-05
      7 -0.468703D-02  0.000000D+00 -0.320969D-02  0.396716D-02  0.000000D+00
      8  0.000000D+00 -0.361579D-03  0.000000D+00  0.000000D+00 -0.102241D-03
      9 -0.333085D-02  0.000000D+00 -0.116337D-02  0.127784D-02  0.000000D+00
     10  0.159078D-02  0.457763D-03  0.793707D-03  0.909639D-03  0.125007D-02
     11  0.264036D-02  0.365602D-03  0.266021D-03 -0.490566D-02  0.153939D-02
     12  0.638256D-03  0.464999D-04  0.381745D-03 -0.252951D-02  0.630463D-03
     13  0.159175D-02 -0.457806D-03  0.793672D-03  0.908201D-03 -0.125018D-02
     14 -0.264045D-02  0.364950D-03 -0.265803D-03  0.490610D-02  0.154024D-02
     15  0.638648D-03 -0.461028D-04  0.381830D-03 -0.253006D-02 -0.630587D-03
     16  0.180357D-02  0.000000D+00 -0.187564D-03  0.798797D-02  0.000000D+00
     17  0.000000D+00 -0.911877D-03  0.000000D+00  0.000000D+00 -0.324954D-02
     18  0.963385D-02  0.210514D-05  0.160925D-02 -0.137940D-01 -0.220550D-05
     19 -0.823175D-01 -0.933408D-05 -0.310394D-01  0.657135D-01  0.903920D-05
     20  0.000000D+00  0.330269D-02  0.000000D+00 -0.119186D-05 -0.143694D-02
     21 -0.529658D-01 -0.742559D-05 -0.175674D-01  0.760137D-01  0.731285D-05
                6             7             8             9            10 
      6  0.623265D-02
      7  0.372248D-02  0.264952D+00
      8  0.000000D+00  0.273069D-04  0.460075D-01
      9 -0.183174D-02  0.115625D+00  0.144783D-04  0.119559D+00
     10 -0.160803D-02 -0.146121D-01 -0.256179D-01  0.581379D-02  0.123107D+00
     11 -0.257460D-02  0.558255D-02 -0.137192D-02  0.168468D-03  0.124662D+00
     12 -0.278707D-02 -0.673908D-02 -0.142141D-01  0.504845D-02 -0.373508D-01
     13 -0.160953D-02 -0.146167D-01  0.256152D-01  0.581399D-02  0.539450D-02
     14  0.257457D-02 -0.558580D-02 -0.136689D-02 -0.166921D-03  0.175710D-01
     15 -0.278688D-02 -0.674227D-02  0.142130D-01  0.504765D-02 -0.540304D-02
     16 -0.885188D-02 -0.248116D+00 -0.261613D-04 -0.103553D+00 -0.110057D+00
     17  0.000000D+00 -0.253626D-04 -0.420769D-01 -0.133817D-04 -0.114692D+00
     18 -0.283941D-01 -0.913240D-01 -0.116075D-04 -0.878988D-01  0.289897D-01
     19  0.542743D-01  0.131158D-01  0.195399D-05 -0.216501D-01 -0.633443D-02
     20 -0.170586D-05  0.117276D-05 -0.737186D-03 -0.196326D-05 -0.363033D-02
     21  0.403394D-01 -0.113597D-01 -0.176178D-05 -0.387645D-01  0.877198D-02
               11            12            13            14            15 
     11  0.244184D+00
     12 -0.557577D-01  0.748505D-01
     13 -0.175660D-01 -0.540132D-02  0.123166D+00
     14 -0.149423D-01 -0.522789D-02 -0.124694D+00  0.244133D+00
     15  0.522685D-02  0.520696D-02 -0.373611D-01  0.557455D-01  0.748484D-01
     16 -0.113383D+00  0.261634D-01 -0.110111D+00  0.113416D+00  0.261718D-01
     17 -0.234428D+00  0.478494D-01  0.114724D+00 -0.234380D+00 -0.478395D-01
     18  0.413021D-01 -0.575120D-01  0.289978D-01 -0.412935D-01 -0.575111D-01
     19  0.296466D-02  0.252221D-01 -0.633483D-02 -0.296753D-02  0.252291D-01
     20  0.465409D-02  0.266736D-01  0.362840D-02  0.465306D-02 -0.266694D-01
     21  0.113847D-01 -0.251852D-01  0.877381D-02 -0.113819D-01 -0.251835D-01
               16            17            18            19            20 
     16  0.542493D+00
     17 -0.712197D-05  0.561544D+00
     18  0.356607D-02  0.000000D+00  0.432460D+00
     19 -0.839928D-01  0.000000D+00  0.339224D-01  0.100106D+00
     20  0.000000D+00 -0.464792D-01  0.329642D-05  0.000000D+00  0.360286D-01
     21  0.567097D-01  0.309652D-05 -0.202747D+00 -0.859509D-01 -0.410170D-05
               21 
     21  0.269094D+00
 Leave Link  716 at Wed Mar  6 17:40:10 2024, MaxMem=   104857600 cpu:               0.0 elap:               0.0
 (Enter /opt/g16/l123.exe)
 IRC-IRC-IRC-IRC-IRC-IRC-IRC-IRC-IRC-IRC-IRC-IRC-IRC-IRC-IRC-IRC-IRC-IRC
 Pt  3 Step number   1 out of a maximum of  10
 Using modified Bulirsch-Stoer corrector integration.
   Using distance weighted interpolants to fit PES.
 PreDWI: IReCr0= 2 IReCr1= 1 IReCr2= 1 IReCr3= 1
 Modified Bulirsch-Stoer Extrapolation Cycles:
    EPS =    0.000010000000000
    Cycle     1 NS=    48
      PEZero:  N= 2 I= 1 D=  1.63D-04 Err=  9.41D-06
    Cycle     2 NS=    64 Truncation Error =  0.000009415
 BS completed in    2 cycles and     112 integration steps.
 Maximum DWI energy   std dev =  0.000000155 at pt    33
 Maximum DWI gradient std dev =  0.008240568 at pt    16
 SUMMARY OF CORRECTOR INTEGRATION:
   Predictor End Point Energy =  -116.079939
   Old End Point Energy       =  -116.079939
   Corrected End Point Energy =  -116.079939
   Predictor End-Start Dist.  =     0.031242
   Old End-Start Dist.        =     0.031242
   New End-Start Dist.        =     0.031236
   New End-Old End Dist.      =     0.000249
 CORRECTOR INTEGRATION CONVERGENCE:
   Recorrection delta-x convergence threshold:    0.010000
   Delta-x Convergence Met
 Point Number:   3          Path Number:   1
                    CURRENT STRUCTURE
                Cartesian Coordinates (Ang):                
 ---------------------------------------------------------------------
 Center     Atomic                     Coordinates (Angstroms)
 Number     Number                        X           Y           Z
 ---------------------------------------------------------------------
      1          1                   -1.643905   -0.000071   -1.554005
      2          1                   -0.865555    0.000027   -1.268806
      3          1                    0.866342    0.000112    1.285653
      4          1                   -0.645514   -0.899467    1.045068
      5          1                   -0.645722    0.899327    1.045047
      6          6                   -0.093664   -0.000008    0.757118
      7          8                    0.255170    0.000011   -0.602864
 ---------------------------------------------------------------------
   CHANGE IN THE REACTION COORDINATE =    0.03124
   NET REACTION COORDINATE UP TO THIS POINT =    0.09371
  # OF POINTS ALONG THE PATH =   3
  # OF STEPS =   1

 Calculating another point on the path.
 Point Number  4 in FORWARD path direction.
 Using LQA Reaction Path Following.
   LQA: T_Est iteration completed in    3 iterations.
 IRC-IRC-IRC-IRC-IRC-IRC-IRC-IRC-IRC-IRC-IRC-IRC-IRC-IRC-IRC-IRC-IRC-IRC
 Leave Link  123 at Wed Mar  6 17:40:11 2024, MaxMem=   104857600 cpu:               0.0 elap:               0.0
 (Enter /opt/g16/l202.exe)
                          Input orientation:                          
 ---------------------------------------------------------------------
 Center     Atomic      Atomic             Coordinates (Angstroms)
 Number     Number       Type             X           Y           Z
 ---------------------------------------------------------------------
      1          1           0       -1.647569   -0.000070   -1.555210
      2          1           0       -0.878122    0.000024   -1.277248
      3          1           0        0.866516    0.000112    1.285679
      4          1           0       -0.645336   -0.899833    1.044529
      5          1           0       -0.645544    0.899693    1.044507
      6          6           0       -0.093603   -0.000008    0.756890
      7          8           0        0.256116    0.000011   -0.602019
 ---------------------------------------------------------------------
                    Distance matrix (angstroms):
                    1          2          3          4          5
     1  H    0.000000
     2  H    0.818114   0.000000
     3  H    3.793582   3.100380   0.000000
     4  H    2.927915   2.500916   1.775880   0.000000
     5  H    2.927824   2.500809   1.775876   1.799527   0.000000
     6  C    2.785788   2.180181   1.096105   1.093997   1.093995
     7  O    2.128988   1.320012   1.983933   2.081695   2.081699
                    6          7
     6  C    0.000000
     7  O    1.403189   0.000000
 Symmetry turned off by external request.
 Stoichiometry    CH5O(2)
 Framework group  C1[X(CH5O)]
 Deg. of freedom    15
 Full point group                 C1      NOp   1
 Rotational constants (GHZ):          64.0234980          22.7116889          18.7999406
 Leave Link  202 at Wed Mar  6 17:40:11 2024, MaxMem=   104857600 cpu:               0.0 elap:               0.0
 (Enter /opt/g16/l301.exe)
 Standard basis: STO-3G (5D, 7F)
 Ernie: Thresh=  0.10000D-02 Tol=  0.10000D-05 Strict=F.
    15 basis functions,    45 primitive gaussians,    15 cartesian basis functions
    10 alpha electrons        9 beta electrons
       nuclear repulsion energy        43.4276555405 Hartrees.
 IExCor=    0 DFT=F Ex=HF Corr=None ExCW=0 ScaHFX=  1.000000
 ScaDFX=  1.000000  1.000000  1.000000  1.000000 ScalE2=  1.000000  1.000000
 IRadAn=      5 IRanWt=     -1 IRanGd=            0 ICorTp=0 IEmpDi=  4
 NAtoms=    7 NActive=    7 NUniq=    7 SFac= 1.00D+00 NAtFMM=   60 NAOKFM=F Big=F
 Integral buffers will be    131072 words long.
 Raffenetti 2 integral format.
 Two-electron integral symmetry is turned off.
 Leave Link  301 at Wed Mar  6 17:40:11 2024, MaxMem=   104857600 cpu:               0.1 elap:               0.1
 (Enter /opt/g16/l402.exe)
 External calculation of energy, first and second derivatives.
 Running external command "python3 -u ../pes/h5co_pes.py R"
         input file       "/home/jh-li/scratch/g16/Gau-233773.EIn"
         output file      "/home/jh-li/scratch/g16/Gau-233773.EOu"
         message file     "/home/jh-li/scratch/g16/Gau-233773.EMs"
         fchk file        "/home/jh-li/scratch/g16/Gau-233773.EFC"
         mat. el file     "/home/jh-li/scratch/g16/Gau-233773.EUF"
 Recovered energy= -116.080214860     dipole=      0.000000000000      0.000000000000      0.000000000000
 NRF= 0 NRA=   0 NVA=   0 HaveQM=F NVQ=       0
 Convergence limit is  0.750E-04 MaxStp= 10000 StMxLn= 3.00D-04 StpMin= 1.00D-06.
 Convergence criteria             0.00011250 0.00007500 0.00045000 0.00030000
  Step  NS  ND Rises OKQ   Scale  Max. Force  RMS Force Max. Disp.  RMS Disp.     Energy   Flag
     1   0   0   F    T  1.00D+00 0.00000000 0.00000000 0.00000000 0.00000000 -116.0802149 ====
 Running external command "python3 -u ../pes/h5co_pes.py R"
         input file       "/home/jh-li/scratch/g16/Gau-233773.EIn"
         output file      "/home/jh-li/scratch/g16/Gau-233773.EOu"
         message file     "/home/jh-li/scratch/g16/Gau-233773.EMs"
         fchk file        "/home/jh-li/scratch/g16/Gau-233773.EFC"
         mat. el file     "/home/jh-li/scratch/g16/Gau-233773.EUF"
 Recovered energy= -116.080214860     dipole=      0.000000000000      0.000000000000      0.000000000000
 Energy=    -116.080215     NIter=   0.
 Dipole moment=       0.000000       0.000000       0.000000
 Leave Link  402 at Wed Mar  6 17:40:13 2024, MaxMem=   104857600 cpu:               0.0 elap:               2.0
 (Enter /opt/g16/l716.exe)
 Dipole        = 0.00000000D+00 0.00000000D+00 0.00000000D+00
 -------------------------------------------------------------------
 Center     Atomic                   Forces (Hartrees/Bohr)
 Number     Number              X              Y              Z
 -------------------------------------------------------------------
      1        1          -0.002529142    0.000000514   -0.000844272
      2        1          -0.007178874   -0.000001122   -0.004942390
      3        1           0.000095081   -0.000000107    0.000024899
      4        1           0.000105594   -0.000218694   -0.000323408
      5        1           0.000105653    0.000218788   -0.000323450
      6        6           0.000457176   -0.000000124   -0.001596667
      7        8           0.008965756    0.000000747    0.007998618
 -------------------------------------------------------------------
 Cartesian Forces:  Max     0.008965756 RMS     0.003313254
 Force constants in Cartesian coordinates: 
                1             2             3             4             5 
      1  0.180372D+00
      2  0.204571D-04  0.271405D-02
      3  0.637116D-01  0.731649D-05  0.281303D-01
      4 -0.102234D+00 -0.115929D-04 -0.327680D-01  0.275660D-01
      5 -0.207635D-04 -0.546052D-02 -0.747574D-05  0.126468D-04  0.621723D-02
      6 -0.204533D-01 -0.244034D-05 -0.128846D-01 -0.219888D-01  0.315242D-05
      7 -0.440486D-02  0.000000D+00 -0.309762D-02  0.368880D-02  0.000000D+00
      8  0.000000D+00 -0.363400D-03  0.000000D+00  0.000000D+00 -0.926890D-04
      9 -0.332679D-02  0.000000D+00 -0.113571D-02  0.149616D-02  0.000000D+00
     10  0.150760D-02  0.459592D-03  0.798995D-03  0.786938D-03  0.120901D-02
     11  0.243276D-02  0.366842D-03  0.215261D-03 -0.479830D-02  0.150566D-02
     12  0.614300D-03  0.571435D-04  0.356063D-03 -0.237375D-02  0.595903D-03
     13  0.150852D-02 -0.459643D-03  0.798945D-03  0.785481D-03 -0.120909D-02
     14 -0.243289D-02  0.366237D-03 -0.215047D-03  0.479879D-02  0.150648D-02
     15  0.614676D-03 -0.567545D-04  0.356137D-03 -0.237428D-02 -0.596039D-03
     16  0.176304D-02  0.000000D+00 -0.213871D-03  0.809035D-02  0.000000D+00
     17  0.000000D+00 -0.942001D-03  0.000000D+00  0.000000D+00 -0.312623D-02
     18  0.874881D-02  0.189992D-05  0.140721D-02 -0.122270D-01 -0.198008D-05
     19 -0.785402D-01 -0.862204D-05 -0.292406D-01  0.613751D-01  0.832049D-05
     20  0.000000D+00  0.331441D-02  0.000000D+00  0.000000D+00 -0.543307D-03
     21 -0.498875D-01 -0.683520D-05 -0.162254D-01  0.702003D-01  0.676379D-05
                6             7             8             9            10 
      6  0.816187D-02
      7  0.347312D-02  0.264597D+00
      8  0.000000D+00  0.272331D-04  0.458657D-01
      9 -0.162941D-02  0.115703D+00  0.144648D-04  0.119272D+00
     10 -0.165054D-02 -0.146675D-01 -0.256110D-01  0.588312D-02  0.122913D+00
     11 -0.251529D-02  0.576116D-02 -0.155058D-02  0.199879D-03  0.124722D+00
     12 -0.266065D-02 -0.669649D-02 -0.142406D-01  0.514103D-02 -0.373637D-01
     13 -0.165203D-02 -0.146722D-01  0.256083D-01  0.588329D-02  0.527352D-02
     14  0.251531D-02 -0.576437D-02 -0.154560D-02 -0.198314D-03  0.176190D-01
     15 -0.266045D-02 -0.669968D-02  0.142396D-01  0.514025D-02 -0.551566D-02
     16 -0.788012D-02 -0.247571D+00 -0.261196D-04 -0.104226D+00 -0.109470D+00
     17  0.000000D+00 -0.253419D-04 -0.414168D-01 -0.134121D-04 -0.114862D+00
     18 -0.270480D-01 -0.909592D-01 -0.115331D-04 -0.876737D-01  0.289116D-01
     19  0.501696D-01  0.130317D-01  0.194227D-05 -0.214169D-01 -0.634454D-02
     20 -0.150609D-05  0.119369D-05 -0.905936D-03 -0.196205D-05 -0.353734D-02
     21  0.387207D-01 -0.117508D-01 -0.181629D-05 -0.391170D-01  0.894353D-02
               11            12            13            14            15 
     11  0.244232D+00
     12 -0.558307D-01  0.744771D-01
     13 -0.176141D-01 -0.551395D-02  0.122972D+00
     14 -0.150211D-01 -0.514111D-02 -0.124754D+00  0.244180D+00
     15  0.514005D-02  0.523698D-02 -0.373740D-01  0.558185D-01  0.744749D-01
     16 -0.113476D+00  0.263975D-01 -0.109525D+00  0.113509D+00  0.264060D-01
     17 -0.234066D+00  0.480642D-01  0.114893D+00 -0.234018D+00 -0.480542D-01
     18  0.409081D-01 -0.571237D-01  0.289196D-01 -0.408995D-01 -0.571227D-01
     19  0.296730D-02  0.249388D-01 -0.634488D-02 -0.297016D-02  0.249457D-01
     20  0.453433D-02  0.264955D-01  0.353539D-02  0.453329D-02 -0.264914D-01
     21  0.118984D-01 -0.254234D-01  0.894553D-02 -0.118956D-01 -0.254217D-01
               16            17            18            19            20 
     16  0.539544D+00
     17 -0.710344D-05  0.559504D+00
     18  0.255681D-02  0.000000D+00  0.431216D+00
     19 -0.828228D-01  0.000000D+00  0.340391D-01  0.996081D-01
     20  0.000000D+00 -0.459160D-01  0.325393D-05  0.000000D+00  0.349682D-01
     21  0.569772D-01  0.321671D-05 -0.203648D+00 -0.834272D-01 -0.415086D-05
               21 
     21  0.271100D+00
 Leave Link  716 at Wed Mar  6 17:40:13 2024, MaxMem=   104857600 cpu:               0.0 elap:               0.0
 (Enter /opt/g16/l123.exe)
 IRC-IRC-IRC-IRC-IRC-IRC-IRC-IRC-IRC-IRC-IRC-IRC-IRC-IRC-IRC-IRC-IRC-IRC
 Pt  4 Step number   1 out of a maximum of  10
 Using modified Bulirsch-Stoer corrector integration.
   Using distance weighted interpolants to fit PES.
 PreDWI: IReCr0= 2 IReCr1= 1 IReCr2= 1 IReCr3= 1
 Modified Bulirsch-Stoer Extrapolation Cycles:
    EPS =    0.000010000000000
    Cycle     1 NS=    48
      PEZero:  N= 2 I= 1 D=  1.63D-04 Err=  9.32D-06
    Cycle     2 NS=    64 Truncation Error =  0.000009319
 BS completed in    2 cycles and     112 integration steps.
 Maximum DWI energy   std dev =  0.000000208 at pt    33
 Maximum DWI gradient std dev =  0.005986398 at pt    16
 SUMMARY OF CORRECTOR INTEGRATION:
   Predictor End Point Energy =  -116.080215
   Old End Point Energy       =  -116.080215
   Corrected End Point Energy =  -116.080215
   Predictor End-Start Dist.  =     0.031242
   Old End-Start Dist.        =     0.031242
   New End-Start Dist.        =     0.031237
   New End-Old End Dist.      =     0.000201
 CORRECTOR INTEGRATION CONVERGENCE:
   Recorrection delta-x convergence threshold:    0.010000
   Delta-x Convergence Met
 Point Number:   4          Path Number:   1
                    CURRENT STRUCTURE
                Cartesian Coordinates (Ang):                
 ---------------------------------------------------------------------
 Center     Atomic                     Coordinates (Angstroms)
 Number     Number                        X           Y           Z
 ---------------------------------------------------------------------
      1          1                   -1.647660   -0.000070   -1.555242
      2          1                   -0.878082    0.000024   -1.277249
      3          1                    0.866515    0.000112    1.285680
      4          1                   -0.645336   -0.899835    1.044527
      5          1                   -0.645544    0.899695    1.044506
      6          6                   -0.093603   -0.000008    0.756890
      7          8                    0.256119    0.000011   -0.602017
 ---------------------------------------------------------------------
   CHANGE IN THE REACTION COORDINATE =    0.03124
   NET REACTION COORDINATE UP TO THIS POINT =    0.12495
  # OF POINTS ALONG THE PATH =   4
  # OF STEPS =   1

 Calculating another point on the path.
 Point Number  5 in FORWARD path direction.
 Using LQA Reaction Path Following.
   LQA: T_Est iteration completed in    3 iterations.
 IRC-IRC-IRC-IRC-IRC-IRC-IRC-IRC-IRC-IRC-IRC-IRC-IRC-IRC-IRC-IRC-IRC-IRC
 Leave Link  123 at Wed Mar  6 17:40:13 2024, MaxMem=   104857600 cpu:               0.0 elap:               0.0
 (Enter /opt/g16/l202.exe)
                          Input orientation:                          
 ---------------------------------------------------------------------
 Center     Atomic      Atomic             Coordinates (Angstroms)
 Number     Number       Type             X           Y           Z
 ---------------------------------------------------------------------
      1          1           0       -1.652201   -0.000069   -1.556766
      2          1           0       -0.890253    0.000023   -1.285709
      3          1           0        0.866664    0.000112    1.285733
      4          1           0       -0.645152   -0.900206    1.043968
      5          1           0       -0.645360    0.900066    1.043946
      6          6           0       -0.093534   -0.000008    0.756662
      7          8           0        0.257090    0.000011   -0.601150
 ---------------------------------------------------------------------
                    Distance matrix (angstroms):
                    1          2          3          4          5
     1  H    0.000000
     2  H    0.808725   0.000000
     3  H    3.797958   3.114334   0.000000
     4  H    2.930565   2.509558   1.776122   0.000000
     5  H    2.930474   2.509451   1.776118   1.800272   0.000000
     6  C    2.789515   2.192269   1.096311   1.094158   1.094156
     7  O    2.135086   1.336045   1.982904   2.081068   2.081071
                    6          7
     6  C    0.000000
     7  O    1.402352   0.000000
 Symmetry turned off by external request.
 Stoichiometry    CH5O(2)
 Framework group  C1[X(CH5O)]
 Deg. of freedom    15
 Full point group                 C1      NOp   1
 Rotational constants (GHZ):          63.6584235          22.7058437          18.7662274
 Leave Link  202 at Wed Mar  6 17:40:13 2024, MaxMem=   104857600 cpu:               0.0 elap:               0.0
 (Enter /opt/g16/l301.exe)
 Standard basis: STO-3G (5D, 7F)
 Ernie: Thresh=  0.10000D-02 Tol=  0.10000D-05 Strict=F.
    15 basis functions,    45 primitive gaussians,    15 cartesian basis functions
    10 alpha electrons        9 beta electrons
       nuclear repulsion energy        43.3902643329 Hartrees.
 IExCor=    0 DFT=F Ex=HF Corr=None ExCW=0 ScaHFX=  1.000000
 ScaDFX=  1.000000  1.000000  1.000000  1.000000 ScalE2=  1.000000  1.000000
 IRadAn=      5 IRanWt=     -1 IRanGd=            0 ICorTp=0 IEmpDi=  4
 NAtoms=    7 NActive=    7 NUniq=    7 SFac= 1.00D+00 NAtFMM=   60 NAOKFM=F Big=F
 Integral buffers will be    131072 words long.
 Raffenetti 2 integral format.
 Two-electron integral symmetry is turned off.
 Leave Link  301 at Wed Mar  6 17:40:13 2024, MaxMem=   104857600 cpu:               0.1 elap:               0.1
 (Enter /opt/g16/l402.exe)
 External calculation of energy, first and second derivatives.
 Running external command "python3 -u ../pes/h5co_pes.py R"
         input file       "/home/jh-li/scratch/g16/Gau-233773.EIn"
         output file      "/home/jh-li/scratch/g16/Gau-233773.EOu"
         message file     "/home/jh-li/scratch/g16/Gau-233773.EMs"
         fchk file        "/home/jh-li/scratch/g16/Gau-233773.EFC"
         mat. el file     "/home/jh-li/scratch/g16/Gau-233773.EUF"
 Recovered energy= -116.080536554     dipole=      0.000000000000      0.000000000000      0.000000000000
 NRF= 0 NRA=   0 NVA=   0 HaveQM=F NVQ=       0
 Convergence limit is  0.750E-04 MaxStp= 10000 StMxLn= 3.00D-04 StpMin= 1.00D-06.
 Convergence criteria             0.00011250 0.00007500 0.00045000 0.00030000
  Step  NS  ND Rises OKQ   Scale  Max. Force  RMS Force Max. Disp.  RMS Disp.     Energy   Flag
     1   0   0   F    T  1.00D+00 0.00000000 0.00000000 0.00000000 0.00000000 -116.0805366 ====
 Running external command "python3 -u ../pes/h5co_pes.py R"
         input file       "/home/jh-li/scratch/g16/Gau-233773.EIn"
         output file      "/home/jh-li/scratch/g16/Gau-233773.EOu"
         message file     "/home/jh-li/scratch/g16/Gau-233773.EMs"
         fchk file        "/home/jh-li/scratch/g16/Gau-233773.EFC"
         mat. el file     "/home/jh-li/scratch/g16/Gau-233773.EUF"
 Recovered energy= -116.080536554     dipole=      0.000000000000      0.000000000000      0.000000000000
 Energy=    -116.080537     NIter=   0.
 Dipole moment=       0.000000       0.000000       0.000000
 Leave Link  402 at Wed Mar  6 17:40:15 2024, MaxMem=   104857600 cpu:               0.0 elap:               2.0
 (Enter /opt/g16/l716.exe)
 Dipole        = 0.00000000D+00 0.00000000D+00 0.00000000D+00
 -------------------------------------------------------------------
 Center     Atomic                   Forces (Hartrees/Bohr)
 Number     Number              X              Y              Z
 -------------------------------------------------------------------
      1        1          -0.003395794    0.000000394   -0.001147304
      2        1          -0.007874253   -0.000000967   -0.005604997
      3        1           0.000091150   -0.000000103    0.000046815
      4        1           0.000123013   -0.000249320   -0.000378151
      5        1           0.000123062    0.000249416   -0.000378197
      6        6           0.000580012   -0.000000119   -0.001796829
      7        8           0.010375262    0.000000701    0.009251411
 -------------------------------------------------------------------
 Cartesian Forces:  Max     0.010375262 RMS     0.003801744
 Force constants in Cartesian coordinates: 
                1             2             3             4             5 
      1  0.194872D+00
      2  0.219503D-04  0.216050D-02
      3  0.682499D-01  0.775044D-05  0.288377D-01
      4 -0.120634D+00 -0.137156D-04 -0.391922D-01  0.509230D-01
      5 -0.221165D-04 -0.487867D-02 -0.785005D-05  0.145980D-04  0.484098D-02
      6 -0.271628D-01 -0.320800D-05 -0.146954D-01 -0.118048D-01  0.380832D-05
      7 -0.411211D-02  0.000000D+00 -0.297739D-02  0.341608D-02  0.000000D+00
      8  0.000000D+00 -0.364209D-03  0.000000D+00  0.000000D+00 -0.836211D-04
      9 -0.331409D-02  0.000000D+00 -0.110569D-02  0.170606D-02  0.000000D+00
     10  0.142079D-02  0.459949D-03  0.802160D-03  0.664581D-03  0.116861D-02
     11  0.220971D-02  0.366625D-03  0.158685D-03 -0.466429D-02  0.147089D-02
     12  0.571307D-03  0.665516D-04  0.324723D-03 -0.221120D-02  0.565953D-03
     13  0.142167D-02 -0.460010D-03  0.802096D-03  0.663116D-03 -0.116868D-02
     14 -0.220988D-02  0.366066D-03 -0.158476D-03  0.466482D-02  0.147167D-02
     15  0.571668D-03 -0.661722D-04  0.324788D-03 -0.221170D-02 -0.566097D-03
     16  0.173605D-02  0.000000D+00 -0.234520D-03  0.815169D-02  0.000000D+00
     17  0.000000D+00 -0.964300D-03  0.000000D+00  0.000000D+00 -0.300716D-02
     18  0.788312D-02  0.172015D-05  0.121464D-02 -0.107390D-01 -0.178229D-05
     19 -0.747254D-01 -0.799943D-05 -0.274584D-01  0.568599D-01  0.769089D-05
     20  0.000000D+00  0.330985D-02  0.000000D+00  0.000000D+00  0.192141D-03
     21 -0.467773D-01 -0.631588D-05 -0.148962D-01  0.644175D-01  0.627190D-05
                6             7             8             9            10 
      6  0.100806D-01
      7  0.324049D-02  0.264217D+00
      8  0.000000D+00  0.271654D-04  0.457089D-01
      9 -0.143813D-02  0.115772D+00  0.144549D-04  0.119004D+00
     10 -0.169321D-02 -0.147101D-01 -0.255896D-01  0.595096D-02  0.122682D+00
     11 -0.244346D-02  0.593753D-02 -0.172426D-02  0.237132D-03  0.124742D+00
     12 -0.253312D-02 -0.666579D-02 -0.142632D-01  0.522305D-02 -0.373667D-01
     13 -0.169468D-02 -0.147147D-01  0.255869D-01  0.595112D-02  0.515505D-02
     14  0.244352D-02 -0.594069D-02 -0.171934D-02 -0.235550D-03  0.176664D-01
     15 -0.253293D-02 -0.666896D-02  0.142621D-01  0.522228D-02 -0.562109D-02
     16 -0.700362D-02 -0.247029D+00 -0.260881D-04 -0.104864D+00 -0.108867D+00
     17  0.000000D+00 -0.253290D-04 -0.407554D-01 -0.134479D-04 -0.115001D+00
     18 -0.257494D-01 -0.906107D-01 -0.114657D-04 -0.874391D-01  0.288029D-01
     19  0.461294D-01  0.129346D-01  0.193044D-05 -0.212059D-01 -0.634697D-02
     20 -0.135516D-05  0.121236D-05 -0.107141D-02 -0.195704D-05 -0.344643D-02
     21  0.368667D-01 -0.121174D-01 -0.186928D-05 -0.394696D-01  0.913235D-02
               11            12            13            14            15 
     11  0.244209D+00
     12 -0.558764D-01  0.741039D-01
     13 -0.176615D-01 -0.561939D-02  0.122741D+00
     14 -0.150811D-01 -0.506453D-02 -0.124774D+00  0.244158D+00
     15  0.506345D-02  0.525006D-02 -0.373771D-01  0.558642D-01  0.741017D-01
     16 -0.113530D+00  0.266252D-01 -0.108921D+00  0.113563D+00  0.266337D-01
     17 -0.233662D+00  0.482451D-01  0.115033D+00 -0.233615D+00 -0.482350D-01
     18  0.404873D-01 -0.567292D-01  0.288108D-01 -0.404786D-01 -0.567282D-01
     19  0.296233D-02  0.246690D-01 -0.634727D-02 -0.296518D-02  0.246759D-01
     20  0.442185D-02  0.263268D-01  0.344446D-02  0.442080D-02 -0.263228D-01
     21  0.123888D-01 -0.256359D-01  0.913450D-02 -0.123860D-01 -0.256342D-01
               16            17            18            19            20 
     16  0.536586D+00
     17 -0.708791D-05  0.557375D+00
     18  0.159968D-02  0.000000D+00  0.430085D+00
     19 -0.816485D-01  0.000000D+00  0.342409D-01  0.992428D-01
     20  0.000000D+00 -0.453516D-01  0.322457D-05  0.000000D+00  0.340634D-01
     21  0.572609D-01  0.332673D-05 -0.204646D+00 -0.810419D-01 -0.418988D-05
               21 
     21  0.273400D+00
 Leave Link  716 at Wed Mar  6 17:40:15 2024, MaxMem=   104857600 cpu:               0.0 elap:               0.0
 (Enter /opt/g16/l123.exe)
 IRC-IRC-IRC-IRC-IRC-IRC-IRC-IRC-IRC-IRC-IRC-IRC-IRC-IRC-IRC-IRC-IRC-IRC
 Pt  5 Step number   1 out of a maximum of  10
 Using modified Bulirsch-Stoer corrector integration.
   Using distance weighted interpolants to fit PES.
 PreDWI: IReCr0= 2 IReCr1= 1 IReCr2= 1 IReCr3= 1
 Modified Bulirsch-Stoer Extrapolation Cycles:
    EPS =    0.000010000000000
    Cycle     1 NS=    48
      PEZero:  N= 2 I= 1 D=  1.63D-04 Err=  8.61D-06
    Cycle     2 NS=    64 Truncation Error =  0.000008609
 BS completed in    2 cycles and     112 integration steps.
 Maximum DWI energy   std dev =  0.000000250 at pt    24
 Maximum DWI gradient std dev =  0.004616532 at pt    16
 SUMMARY OF CORRECTOR INTEGRATION:
   Predictor End Point Energy =  -116.080537
   Old End Point Energy       =  -116.080537
   Corrected End Point Energy =  -116.080537
   Predictor End-Start Dist.  =     0.031242
   Old End-Start Dist.        =     0.031242
   New End-Start Dist.        =     0.031238
   New End-Old End Dist.      =     0.000165
 CORRECTOR INTEGRATION CONVERGENCE:
   Recorrection delta-x convergence threshold:    0.010000
   Delta-x Convergence Met
 Point Number:   5          Path Number:   1
                    CURRENT STRUCTURE
                Cartesian Coordinates (Ang):                
 ---------------------------------------------------------------------
 Center     Atomic                     Coordinates (Angstroms)
 Number     Number                        X           Y           Z
 ---------------------------------------------------------------------
      1          1                   -1.652274   -0.000069   -1.556791
      2          1                   -0.890215    0.000023   -1.285707
      3          1                    0.866664    0.000112    1.285735
      4          1                   -0.645152   -0.900207    1.043966
      5          1                   -0.645360    0.900067    1.043945
      6          6                   -0.093533   -0.000008    0.756662
      7          8                    0.257092    0.000011   -0.601148
 ---------------------------------------------------------------------
   CHANGE IN THE REACTION COORDINATE =    0.03124
   NET REACTION COORDINATE UP TO THIS POINT =    0.15618
  # OF POINTS ALONG THE PATH =   5
  # OF STEPS =   1

 Calculating another point on the path.
 Point Number  6 in FORWARD path direction.
 Using LQA Reaction Path Following.
   LQA: T_Est iteration completed in    3 iterations.
 IRC-IRC-IRC-IRC-IRC-IRC-IRC-IRC-IRC-IRC-IRC-IRC-IRC-IRC-IRC-IRC-IRC-IRC
 Leave Link  123 at Wed Mar  6 17:40:15 2024, MaxMem=   104857600 cpu:               0.0 elap:               0.0
 (Enter /opt/g16/l202.exe)
                          Input orientation:                          
 ---------------------------------------------------------------------
 Center     Atomic      Atomic             Coordinates (Angstroms)
 Number     Number       Type             X           Y           Z
 ---------------------------------------------------------------------
      1          1           0       -1.657607   -0.000068   -1.558598
      2          1           0       -0.901976    0.000021   -1.294167
      3          1           0        0.866788    0.000111    1.285817
[...]
         input file       "/home/jh-li/scratch/g16/Gau-233773.EIn"
         output file      "/home/jh-li/scratch/g16/Gau-233773.EOu"
         message file     "/home/jh-li/scratch/g16/Gau-233773.EMs"
         fchk file        "/home/jh-li/scratch/g16/Gau-233773.EFC"
         mat. el file     "/home/jh-li/scratch/g16/Gau-233773.EUF"
 Recovered energy= -116.104024530     dipole=      0.000000000000      0.000000000000      0.000000000000
 NRF= 0 NRA=   0 NVA=   0 HaveQM=F NVQ=       0
 Convergence limit is  0.750E-04 MaxStp= 10000 StMxLn= 3.00D-04 StpMin= 1.00D-06.
 Convergence criteria             0.00011250 0.00007500 0.00045000 0.00030000
  Step  NS  ND Rises OKQ   Scale  Max. Force  RMS Force Max. Disp.  RMS Disp.     Energy   Flag
     1   0   0   F    T  1.00D+00 0.00000000 0.00000000 0.00000000 0.00000000 -116.1040245 ====
 Running external command "python3 -u ../pes/h5co_pes.py R"
         input file       "/home/jh-li/scratch/g16/Gau-233773.EIn"
         output file      "/home/jh-li/scratch/g16/Gau-233773.EOu"
         message file     "/home/jh-li/scratch/g16/Gau-233773.EMs"
         fchk file        "/home/jh-li/scratch/g16/Gau-233773.EFC"
         mat. el file     "/home/jh-li/scratch/g16/Gau-233773.EUF"
 Recovered energy= -116.104024530     dipole=      0.000000000000      0.000000000000      0.000000000000
 Energy=    -116.104025     NIter=   0.
 Dipole moment=       0.000000       0.000000       0.000000
 Leave Link  402 at Wed Mar  6 17:46:18 2024, MaxMem=   104857600 cpu:               0.0 elap:               1.9
 (Enter /opt/g16/l716.exe)
 Dipole        = 0.00000000D+00 0.00000000D+00 0.00000000D+00
 -------------------------------------------------------------------
 Center     Atomic                   Forces (Hartrees/Bohr)
 Number     Number              X              Y              Z
 -------------------------------------------------------------------
      1        1          -0.000131177   -0.000000007   -0.000032488
      2        1           0.000010998   -0.000000004   -0.000001437
      3        1          -0.000004040   -0.000000004    0.000004945
      4        1          -0.000001505    0.000000172   -0.000003609
      5        1          -0.000001500   -0.000000169   -0.000003607
      6        6          -0.000001384   -0.000000002   -0.000004269
      7        8           0.000122027    0.000000017    0.000039569
 -------------------------------------------------------------------
 Cartesian Forces:  Max     0.000131177 RMS     0.000040786
 Force constants in Cartesian coordinates: 
                1             2             3             4             5 
      1  0.980681D-03
      2  0.000000D+00 -0.163964D-04
      3  0.380802D-03  0.000000D+00  0.158578D-03
      4 -0.107584D-02  0.000000D+00 -0.302401D-03  0.382409D+00
      5  0.000000D+00 -0.742584D-04  0.000000D+00  0.316052D-04  0.225711D-02
      6 -0.244828D-03  0.000000D+00 -0.274656D-03  0.226613D+00  0.190215D-04
      7  0.232094D-03  0.000000D+00  0.132866D-03  0.163104D-03  0.000000D+00
      8  0.000000D+00 -0.368724D-04  0.000000D+00  0.000000D+00  0.254926D-04
      9  0.126865D-03  0.000000D+00  0.276278D-04  0.245024D-03  0.000000D+00
     10 -0.226058D-03 -0.601606D-04 -0.263734D-04  0.207733D-02  0.107358D-02
     11 -0.357543D-03 -0.107304D-03 -0.306704D-03  0.839495D-03  0.495864D-03
     12  0.854929D-04 -0.230353D-04  0.122325D-03  0.437952D-03  0.739672D-03
     13 -0.226133D-03  0.601589D-04 -0.264214D-04  0.207776D-02 -0.107336D-02
     14  0.357514D-03 -0.107278D-03  0.306690D-03 -0.839238D-03  0.495627D-03
     15  0.855032D-04  0.230466D-04  0.122336D-03  0.438158D-03 -0.739580D-03
     16  0.578792D-03  0.000000D+00 -0.178911D-04  0.414905D-02  0.000000D+00
     17  0.000000D+00  0.305227D-03  0.000000D+00  0.000000D+00 -0.139940D-02
     18 -0.195110D-02  0.000000D+00 -0.850017D-03  0.210829D-01  0.155761D-05
     19 -0.263587D-03  0.000000D+00 -0.140097D-03 -0.389801D+00 -0.321765D-04
     20  0.000000D+00  0.366970D-04  0.000000D+00 -0.323611D-04 -0.180419D-02
     21  0.151781D-02  0.000000D+00  0.693117D-03 -0.248512D+00 -0.205922D-04
                6             7             8             9            10 
      6  0.211871D+00
      7  0.225532D-02  0.266721D+00
      8  0.000000D+00  0.202970D-04  0.473623D-01
      9 -0.815074D-02  0.127692D+00  0.118494D-04  0.139623D+00
     10  0.103962D-02 -0.130192D-01 -0.244516D-01  0.497542D-02  0.126288D+00
     11  0.249529D-02  0.204189D-02  0.718967D-03 -0.834065D-04  0.122210D+00
     12 -0.149759D-03 -0.834162D-02 -0.141173D-01  0.409008D-02 -0.336982D-01
     13  0.104013D-02 -0.130232D-01  0.244491D-01  0.497524D-02  0.911414D-02
     14 -0.249524D-02 -0.204448D-02  0.723117D-03  0.843549D-04  0.150725D-01
     15 -0.149669D-03 -0.834414D-02  0.141158D-01  0.408995D-02 -0.351550D-02
     16 -0.383468D-01 -0.254038D+00 -0.187642D-04 -0.109019D+00 -0.121099D+00
     17 -0.309667D-05 -0.187534D-04 -0.508314D-01 -0.101272D-04 -0.108574D+00
     18 -0.206308D-01 -0.122942D+00 -0.113129D-04 -0.110012D+00  0.236718D-01
     19 -0.192361D+00  0.129751D-01  0.000000D+00 -0.289999D-01 -0.313280D-02
     20 -0.161605D-04  0.100158D-05  0.203776D-02 -0.262280D-05 -0.527348D-02
     21 -0.182518D+00  0.954676D-02  0.000000D+00 -0.296672D-01  0.755609D-02
               11            12            13            14            15 
     11  0.239798D+00
     12 -0.473719D-01  0.721682D-01
     13 -0.150668D-01 -0.351481D-02  0.126332D+00
     14 -0.223601D-01 -0.323513D-02 -0.122231D+00  0.239755D+00
     15  0.323470D-02  0.303391D-02 -0.337057D-01  0.473644D-01  0.721675D-01
     16 -0.112081D+00  0.212568D-01 -0.121139D+00  0.112100D+00  0.212622D-01
     17 -0.226797D+00  0.357109D-01  0.108594D+00 -0.226757D+00 -0.357056D-01
     18  0.422774D-01 -0.579293D-01  0.236784D-01 -0.422716D-01 -0.579287D-01
     19  0.241285D-02  0.237724D-01 -0.313339D-02 -0.241478D-02  0.237774D-01
     20  0.825611D-02  0.282996D-01  0.527152D-02  0.825635D-02 -0.282956D-01
     21 -0.245881D-03 -0.213382D-01  0.755597D-02  0.247036D-03 -0.213380D-01
               16            17            18            19            20 
     16  0.589981D+00
     17  0.208898D-05  0.565425D+00
     18  0.426384D-01  0.309609D-05  0.482571D+00
     19 -0.984397D-01 -0.302464D-05  0.138115D-01  0.481788D+00
     20 -0.295831D-05 -0.599581D-01  0.000000D+00  0.362840D-04  0.431830D-01
     21  0.622343D-01  0.481450D-05 -0.235217D+00  0.160124D+00  0.138632D-04
               21 
     21  0.489391D+00
 Leave Link  716 at Wed Mar  6 17:46:18 2024, MaxMem=   104857600 cpu:               0.0 elap:               0.0
 (Enter /opt/g16/l123.exe)
 IRC-IRC-IRC-IRC-IRC-IRC-IRC-IRC-IRC-IRC-IRC-IRC-IRC-IRC-IRC-IRC-IRC-IRC
 Pt177 Step number   1 out of a maximum of  10
 Using modified Bulirsch-Stoer corrector integration.
   Using distance weighted interpolants to fit PES.
 PreDWI: IReCr0= 2 IReCr1= 1 IReCr2= 1 IReCr3= 1
 Modified Bulirsch-Stoer Extrapolation Cycles:
    EPS =    0.000010000000000
    Cycle     1 NS=    48
      PEZero:  N= 2 I= 1 D=  1.63D-04 Err=  2.51D-04
    Cycle     2 NS=    64 Truncation Error =  0.000251384
      PEZero:  N= 3 I= 2 D=  1.63D-04 Err=  4.12D-06
      PEZero:  N= 3 I= 1 D=  3.25D-04 Err=  2.51D-04
    Cycle     3 NS=    96 Truncation Error =  0.000004123
 BS completed in    3 cycles and     208 integration steps.
 Maximum DWI energy   std dev =  0.000000039 at pt    48
 Maximum DWI gradient std dev =  0.001439409 at pt    35
 SUMMARY OF CORRECTOR INTEGRATION:
   Predictor End Point Energy =  -116.104025
   Old End Point Energy       =  -116.104025
   Corrected End Point Energy =  -116.104025
   Predictor End-Start Dist.  =     0.031246
   Old End-Start Dist.        =     0.031246
   New End-Start Dist.        =     0.031245
   New End-Old End Dist.      =     0.000014
 CORRECTOR INTEGRATION CONVERGENCE:
   Recorrection delta-x convergence threshold:    0.010000
   Delta-x Convergence Met
 Point Number:  77          Path Number:   2
                    CURRENT STRUCTURE
                Cartesian Coordinates (Ang):                
 ---------------------------------------------------------------------
 Center     Atomic                     Coordinates (Angstroms)
 Number     Number                        X           Y           Z
 ---------------------------------------------------------------------
      1          1                   -2.584596   -0.000128   -1.942355
      2          1                   -0.505626   -0.000046   -1.130260
      3          1                    0.830367    0.000077    1.351123
      4          1                   -0.667492   -0.889507    1.030893
      5          1                   -0.667652    0.889387    1.030885
      6          6                   -0.088246   -0.000009    0.770731
      7          8                    0.292329    0.000020   -0.599752
 ---------------------------------------------------------------------
   CHANGE IN THE REACTION COORDINATE =    0.03124
   NET REACTION COORDINATE UP TO THIS POINT =    2.40540
  # OF POINTS ALONG THE PATH = 177
  # OF STEPS =   1

 PES minimum detected on this side of the pathway.
    Magnitude of the gradient =      0.0001391
 Calculation of REVERSE path complete.
 Reaction path calculation complete.
 
 Energies reported relative to the TS energy of        -116.079524
 --------------------------------------------------------------------------
    Summary of reaction path following
 --------------------------------------------------------------------------
                        Energy    RxCoord
   1                   -0.02450  -2.40540
   2                   -0.02450  -2.37416
   3                   -0.02449  -2.34291
   4                   -0.02448  -2.31167
   5                   -0.02447  -2.28042
   6                   -0.02446  -2.24917
   7                   -0.02445  -2.21793
   8                   -0.02444  -2.18668
   9                   -0.02442  -2.15544
  10                   -0.02440  -2.12419
  11                   -0.02438  -2.09295
  12                   -0.02436  -2.06170
  13                   -0.02434  -2.03046
  14                   -0.02431  -1.99921
  15                   -0.02428  -1.96796
  16                   -0.02425  -1.93672
  17                   -0.02421  -1.90547
  18                   -0.02418  -1.87423
  19                   -0.02413  -1.84298
  20                   -0.02409  -1.81174
  21                   -0.02404  -1.78049
  22                   -0.02399  -1.74925
  23                   -0.02393  -1.71800
  24                   -0.02387  -1.68676
  25                   -0.02380  -1.65551
  26                   -0.02373  -1.62427
  27                   -0.02366  -1.59302
  28                   -0.02358  -1.56177
  29                   -0.02349  -1.53053
  30                   -0.02340  -1.49928
  31                   -0.02330  -1.46804
  32                   -0.02319  -1.43679
  33                   -0.02308  -1.40555
  34                   -0.02296  -1.37430
  35                   -0.02284  -1.34306
  36                   -0.02270  -1.31181
  37                   -0.02256  -1.28057
  38                   -0.02241  -1.24932
  39                   -0.02225  -1.21808
  40                   -0.02207  -1.18683
  41                   -0.02189  -1.15559
  42                   -0.02170  -1.12434
  43                   -0.02150  -1.09310
  44                   -0.02129  -1.06185
  45                   -0.02106  -1.03061
  46                   -0.02082  -0.99936
  47                   -0.02057  -0.96812
  48                   -0.02030  -0.93687
  49                   -0.02001  -0.90563
  50                   -0.01971  -0.87438
  51                   -0.01940  -0.84314
  52                   -0.01906  -0.81189
  53                   -0.01871  -0.78065
  54                   -0.01833  -0.74941
  55                   -0.01793  -0.71816
  56                   -0.01751  -0.68692
  57                   -0.01706  -0.65567
  58                   -0.01659  -0.62444
  59                   -0.01608  -0.59323
  60                   -0.01553  -0.56207
  61                   -0.01489  -0.53095
  62                   -0.01412  -0.49980
  63                   -0.01319  -0.46860
  64                   -0.01210  -0.43737
  65                   -0.01090  -0.40613
  66                   -0.00961  -0.37489
  67                   -0.00828  -0.34365
  68                   -0.00696  -0.31241
  69                   -0.00569  -0.28117
  70                   -0.00450  -0.24993
  71                   -0.00343  -0.21868
  72                   -0.00248  -0.18744
  73                   -0.00169  -0.15620
  74                   -0.00105  -0.12496
  75                   -0.00057  -0.09372
  76                   -0.00024  -0.06248
  77                   -0.00006  -0.03124
  78                    0.00000   0.00000
  79                   -0.00005   0.03124
  80                   -0.00020   0.06247
  81                   -0.00041   0.09371
  82                   -0.00069   0.12495
  83                   -0.00101   0.15618
  84                   -0.00137   0.18742
  85                   -0.00175   0.21866
  86                   -0.00216   0.24991
  87                   -0.00258   0.28115
  88                   -0.00301   0.31239
  89                   -0.00346   0.34363
  90                   -0.00390   0.37488
  91                   -0.00435   0.40612
  92                   -0.00481   0.43737
  93                   -0.00526   0.46861
  94                   -0.00571   0.49986
  95                   -0.00615   0.53110
  96                   -0.00659   0.56234
  97                   -0.00703   0.59359
  98                   -0.00746   0.62483
  99                   -0.00788   0.65608
 100                   -0.00830   0.68732
 101                   -0.00871   0.71857
 102                   -0.00910   0.74981
 103                   -0.00949   0.78106
 104                   -0.00987   0.81230
 105                   -0.01025   0.84355
 106                   -0.01061   0.87479
 107                   -0.01096   0.90604
 108                   -0.01130   0.93728
 109                   -0.01163   0.96853
 110                   -0.01195   0.99977
 111                   -0.01226   1.03102
 112                   -0.01257   1.06226
 113                   -0.01286   1.09351
 114                   -0.01314   1.12475
 115                   -0.01341   1.15599
 116                   -0.01367   1.18724
 117                   -0.01392   1.21848
 118                   -0.01417   1.24973
 119                   -0.01440   1.28097
 120                   -0.01463   1.31222
 121                   -0.01484   1.34346
 122                   -0.01505   1.37471
 123                   -0.01525   1.40595
 124                   -0.01544   1.43720
 125                   -0.01562   1.46844
 126                   -0.01580   1.49969
 127                   -0.01597   1.53093
 128                   -0.01613   1.56218
 129                   -0.01628   1.59342
 130                   -0.01642   1.62467
 131                   -0.01656   1.65591
 132                   -0.01670   1.68716
 133                   -0.01682   1.71840
 134                   -0.01695   1.74965
 135                   -0.01706   1.78089
 136                   -0.01717   1.81214
 137                   -0.01728   1.84338
 138                   -0.01738   1.87462
 139                   -0.01747   1.90587
 140                   -0.01756   1.93711
 141                   -0.01765   1.96836
 142                   -0.01773   1.99960
 143                   -0.01780   2.03085
 144                   -0.01788   2.06209
 145                   -0.01795   2.09334
 146                   -0.01801   2.12458
 147                   -0.01808   2.15583
 148                   -0.01814   2.18707
 149                   -0.01819   2.21832
 150                   -0.01825   2.24956
 151                   -0.01830   2.28080
 152                   -0.01834   2.31205
 153                   -0.01839   2.34329
 154                   -0.01843   2.37454
 155                   -0.01847   2.40578
 156                   -0.01851   2.43703
 157                   -0.01855   2.46827
 158                   -0.01858   2.49952
 159                   -0.01861   2.53076
 160                   -0.01864   2.56200
 161                   -0.01867   2.59325
 162                   -0.01870   2.62449
 163                   -0.01872   2.65574
 164                   -0.01874   2.68698
 165                   -0.01877   2.71822
 166                   -0.01879   2.74946
 167                   -0.01881   2.78071
 168                   -0.01883   2.81195
 169                   -0.01885   2.84319
 170                   -0.01886   2.87443
 171                   -0.01888   2.90567
 172                   -0.01889   2.93691
 173                   -0.01891   2.96815
 174                   -0.01892   2.99939
 175                   -0.01894   3.03063
 176                   -0.01895   3.06187
 177                   -0.01897   3.09310
 178                   -0.01898   3.12435
 --------------------------------------------------------------------------
 
 Total number of points:                  177
 Total number of gradient calculations:   178
 Total number of Hessian calculations:    178
 IRC-IRC-IRC-IRC-IRC-IRC-IRC-IRC-IRC-IRC-IRC-IRC-IRC-IRC-IRC-IRC-IRC-IRC
 Leave Link  123 at Wed Mar  6 17:46:18 2024, MaxMem=   104857600 cpu:               0.0 elap:               0.0
 (Enter /opt/g16/l202.exe)
                          Input orientation:                          
 ---------------------------------------------------------------------
 Center     Atomic      Atomic             Coordinates (Angstroms)
 Number     Number       Type             X           Y           Z
 ---------------------------------------------------------------------
      1          1           0       -2.584598   -0.000128   -1.942350
      2          1           0       -0.505627   -0.000046   -1.130259
      3          1           0        0.830366    0.000077    1.351125
      4          1           0       -0.667493   -0.889507    1.030891
      5          1           0       -0.667653    0.889387    1.030884
      6          6           0       -0.088245   -0.000009    0.770730
      7          8           0        0.292329    0.000020   -0.599752
 ---------------------------------------------------------------------
                    Distance matrix (angstroms):
                    1          2          3          4          5
     1  H    0.000000
     2  H    2.231952   0.000000
     3  H    4.744361   2.818181   0.000000
     4  H    3.647800   2.342629   1.771297   0.000000
     5  H    3.647744   2.342624   1.771296   1.778894   0.000000
     6  C    3.686811   1.946270   1.086603   1.092895   1.092895
     7  O    3.174788   0.958213   2.023711   2.090817   2.090817
                    6          7
     6  C    0.000000
     7  O    1.422342   0.000000
 Symmetry turned off by external request.
 Stoichiometry    CH5O(2)
 Framework group  C1[X(CH5O)]
 Deg. of freedom    15
 Full point group                 C1      NOp   1
 Rotational constants (GHZ):          44.3939239          21.2324625          15.7946102
 Leave Link  202 at Wed Mar  6 17:46:18 2024, MaxMem=   104857600 cpu:               0.0 elap:               0.0
 (Enter /opt/g16/l601.exe)
 Leave Link  601 at Wed Mar  6 17:46:18 2024, MaxMem=   104857600 cpu:               0.0 elap:               0.0
 (Enter /opt/g16/l9999.exe)

 This type of calculation cannot be archived.


 This summer one third of the nation will be ill-housed
 ill-nourished and ill-clad. Only they call it a vacation.
 -- Jonas Salk
 Job cpu time:       0 days  0 hours  0 minutes 36.3 seconds.
 Elapsed time:       0 days  0 hours  6 minutes 11.4 seconds.
 File lengths (MBytes):  RWF=      6 Int=      0 D2E=      0 Chk=      2 Scr=      1
 Normal termination of Gaussian 16 at Wed Mar  6 17:46:18 2024.
