 Entering Gaussian System, Link 0=g16
 Initial command:
 /opt/g16/l1.exe "/home/jh-li/scratch/g16/Gau-240050.inp" -scrdir="/home/jh-li/scratch/g16/"
 Entering Link 1 = /opt/g16/l1.exe PID=    240053.
  
 Copyright (c) 1988-2019, Gaussian, Inc.  All Rights Reserved.
  
 This is part of the Gaussian(R) 16 program.  It is based on
 the Gaussian(R) 09 system (copyright 2009, Gaussian, Inc.),
 the Gaussian(R) 03 system (copyright 2003, Gaussian, Inc.),
 the Gaussian(R) 98 system (copyright 1998, Gaussian, Inc.),
 the Gaussian(R) 94 system (copyright 1995, Gaussian, Inc.),
 the Gaussian 92(TM) system (copyright 1992, Gaussian, Inc.),
 the Gaussian 90(TM) system (copyright 1990, Gaussian, Inc.),
 the Gaussian 88(TM) system (copyright 1988, Gaussian, Inc.),
 the Gaussian 86(TM) system (copyright 1986, Carnegie Mellon
 University), and the Gaussian 82(TM) system (copyright 1983,
 Carnegie Mellon University). Gaussian is a federally registered
 trademark of Gaussian, Inc.
  
 This software contains proprietary and confidential information,
 including trade secrets, belonging to Gaussian, Inc.
  
 This software is provided under written license and may be
 used, copied, transmitted, or stored only in accord with that
 written license.
  
 The following legend is applicable only to US Government
 contracts under FAR:
  
                    RESTRICTED RIGHTS LEGEND
  
 Use, reproduction and disclosure by the US Government is
 subject to restrictions as set forth in subparagraphs (a)
 and (c) of the Commercial Computer Software - Restricted
 Rights clause in FAR 52.227-19.
  
 Gaussian, Inc.
 340 Quinnipiac St., Bldg. 40, Wallingford CT 06492
  
  
 ---------------------------------------------------------------
 Warning -- This program may not be used in any manner that
 competes with the business of Gaussian, Inc. or will provide
 assistance to any competitor of Gaussian, Inc.  The licensee
 of this program is prohibited from giving any competitor of
 Gaussian, Inc. access to this program.  By using this program,
 the user acknowledges that Gaussian, Inc. is engaged in the
 business of creating and licensing software in the field of
 computational chemistry and represents and warrants to the
 licensee that it is not a competitor of Gaussian, Inc. and that
 it will not use this program in any manner prohibited above.
 ---------------------------------------------------------------
  

 Cite this work as:
 Gaussian 16, Revision C.01,
 M. J. Frisch, G. W. Trucks, H. B. Schlegel, G. E. Scuseria, 
 M. A. Robb, J. R. Cheeseman, G. Scalmani, V. Barone, 
 G. A. Petersson, H. Nakatsuji, X. Li, M. Caricato, A. V. Marenich, 
 J. Bloino, B. G. Janesko, R. Gomperts, B. Mennucci, H. P. Hratchian, 
 J. V. Ortiz, A. F. Izmaylov, J. L. Sonnenberg, D. Williams-Young, 
 F. Ding, F. Lipparini, F. Egidi, J. Goings, B. Peng, A. Petrone, 
 T. Henderson, D. Ranasinghe, V. G. Zakrzewski, J. Gao, N. Rega, 
 G. Zheng, W. Liang, M. Hada, M. Ehara, K. Toyota, R. Fukuda, 
 J. Hasegawa, M. Ishida, T. Nakajima, Y. Honda, O. Kitao, H. Nakai, 
 T. Vreven, K. Throssell, J. A. Montgomery, Jr., J. E. Peralta, 
 F. Ogliaro, M. J. Bearpark, J. J. Heyd, E. N. Brothers, K. N. Kudin, 
 V. N. Staroverov, T. A. Keith, R. Kobayashi, J. Normand, 
 K. Raghavachari, A. P. Rendell, J. C. Burant, S. S. Iyengar, 
 J. Tomasi, M. Cossi, J. M. Millam, M. Klene, C. Adamo, R. Cammi, 
 J. W. Ochterski, R. L. Martin, K. Morokuma, O. Farkas, 
 J. B. Foresman, and D. J. Fox, Gaussian, Inc., Wallingford CT, 2019.
 
 ******************************************
 Gaussian 16:  ES64L-G16RevC.01  3-Jul-2019
                 6-Mar-2024 
 ******************************************
 %nproc=1
 Will use up to    1 processors via shared memory.
 %oldchk=ts2-opt-freq.chk
 Copying data from "ts2-opt-freq.chk" to current chk file "/home/jh-li/scratch/g16/Gau-240053.chk"
 IOpt=  2 FromEx=T IUOpen= 4 IOptOp= 5 NList=   0 IFRang= 0 IUIn= 4 IUOut= 2.
 ----------------------------------------------------------------------
 #p external="python3 -u ../pes/h5co_pes.py" irc=(calcall,stepsize=3,ma
 xpoint=100) geom=allcheck
 ----------------------------------------------------------------------
 1/6=10,10=4,18=10,26=1,29=7,38=1,39=3,42=100,44=3,71=1,172=1/1,23;
 2/12=2,29=1,40=1/2;
 3/11=9,14=-4,25=1,30=1,41=9900000,43=2,71=2,140=1/1;
 4/20=17,22=1002,24=3,113=1,114=1/2;
 6/7=2,8=2,9=2,10=2,18=1/1;
 7/25=1,44=-1/16;
 1/6=10,10=4,18=10,26=1,39=3,42=100,44=3,71=1/23(2);
 2/29=1/2;
 99/5=20/99;
 2/29=1/2;
 3/11=9,14=-2,25=1,30=1,41=9900000,43=2,71=2,140=1/1;
 4/16=2,20=17,22=1002,24=3,113=1,114=1/2;
 7/25=1,44=-1/16;
 1/6=10,10=4,18=10,26=1,39=3,42=100,44=3,71=1/23(-4);
 2/29=1/2;
 6/7=2,8=2,9=2,10=2,18=1/1;
 99/5=20/99;
 Leave Link    1 at Wed Mar  6 17:50:59 2024, MaxMem=   104857600 cpu:               0.0 elap:               0.0
 (Enter /opt/g16/l101.exe)
 Structure from the checkpoint file:  "/home/jh-li/scratch/g16/Gau-240053.chk"
 -----------------------
 H + CH3OH -> H2 + CH2OH
 -----------------------
 Charge =  0 Multiplicity = 2
 Redundant internal coordinates found in file.  (old form).
 H,0,-0.750122593,-0.4977577443,-0.9966323938
 H,0,0.8392677531,0.8118373848,0.9368843808
 H,0,-0.9753429872,0.6550476183,0.9497118021
 H,0,0.0689918532,-0.8731587722,1.3331235584
 H,0,0.1100419373,-1.7420214992,1.7720794933
 C,0,-0.0224643013,0.2275839802,0.6330858999
 O,0,0.0653761049,-0.0743566431,-0.7184609215
 Recover connectivity data from disk.
 ITRead=  0  0  0  0  0  0  0
 MicOpt= -1 -1 -1 -1 -1 -1 -1
 NAtoms=      7 NQM=        7 NQMF=       0 NMMI=      0 NMMIF=      0
                NMic=       0 NMicF=      0.
                    Isotopes and Nuclear Properties:
 (Nuclear quadrupole moments (NQMom) in fm**2, nuclear magnetic moments (NMagM)
  in nuclear magnetons)

  Atom         1           2           3           4           5           6           7
 IAtWgt=           1           1           1           1           1          12          16
 AtmWgt=   1.0078250   1.0078250   1.0078250   1.0078250   1.0078250  12.0000000  15.9949146
 NucSpn=           1           1           1           1           1           0           0
 AtZEff=   1.0000000   1.0000000   1.0000000   1.0000000   1.0000000   3.6000000   5.6000000
 NQMom=    0.0000000   0.0000000   0.0000000   0.0000000   0.0000000   0.0000000   0.0000000
 NMagM=    2.7928460   2.7928460   2.7928460   2.7928460   2.7928460   0.0000000   0.0000000
 AtZNuc=   1.0000000   1.0000000   1.0000000   1.0000000   1.0000000   6.0000000   8.0000000
 Leave Link  101 at Wed Mar  6 17:50:59 2024, MaxMem=   104857600 cpu:               0.1 elap:               0.2
 (Enter /opt/g16/l123.exe)
 IRC-IRC-IRC-IRC-IRC-IRC-IRC-IRC-IRC-IRC-IRC-IRC-IRC-IRC-IRC-IRC-IRC-IRC
 ------------------------------------------------------------------------
 INPUT DATA FOR L123
 ------------------------------------------------------------------------
 GENERAL PARAMETERS:
 Follow reaction path in both directions.
 Maximum points per path      = 100
 Step size                    =   0.030 bohr
 Integration scheme           = HPC                                 
    Redo corrector integration= Yes                                 
    DWI Weight Power          =  2
    DWI will use Hessian update vectors when possible.
    Max correction cycles     =  10
 Initial Hessian              = CalcFC
 Hessian evaluation           = Analytic at all predictor steps
                              = Update at all corrector steps
 Hessian updating method      = Bofill                              
 ------------------------------------------------------------------------
 IRC-IRC-IRC-IRC-IRC-IRC-IRC-IRC-IRC-IRC-IRC-IRC-IRC-IRC-IRC-IRC-IRC-IRC
 Leave Link  123 at Wed Mar  6 17:50:59 2024, MaxMem=   104857600 cpu:               0.0 elap:               0.0
 (Enter /opt/g16/l202.exe)
                          Input orientation:                          
 ---------------------------------------------------------------------
 Center     Atomic      Atomic             Coordinates (Angstroms)
 Number     Number       Type             X           Y           Z
 ---------------------------------------------------------------------
      1          1           0       -0.750123   -0.497758   -0.996632
      2          1           0        0.839268    0.811837    0.936884
      3          1           0       -0.975343    0.655048    0.949712
      4          1           0        0.068992   -0.873159    1.333124
      5          1           0        0.110042   -1.742021    1.772079
      6          6           0       -0.022464    0.227584    0.633086
      7          8           0        0.065376   -0.074357   -0.718461
 ---------------------------------------------------------------------
                    Distance matrix (angstroms):
                    1          2          3          4          5
     1  H    0.000000
     2  H    2.824834   0.000000
     3  H    2.273310   1.821417   0.000000
     4  H    2.497927   1.894609   1.890253   0.000000
     5  H    3.154971   2.784155   2.756862   0.974315   0.000000
     6  C    1.926548   1.084540   1.091309   1.307689   2.279081
     7  O    0.960045   2.030866   2.097124   2.201612   2.997648
                    6          7
     6  C    0.000000
     7  O    1.387647   0.000000
 Symmetry turned off by external request.
 Stoichiometry    CH5O(2)
 Framework group  C1[X(CH5O)]
 Deg. of freedom    15
 Full point group                 C1      NOp   1
 Rotational constants (GHZ):          61.5776788          21.8350159          18.9287921
 Leave Link  202 at Wed Mar  6 17:50:59 2024, MaxMem=   104857600 cpu:               0.0 elap:               0.0
 (Enter /opt/g16/l301.exe)
 Standard basis: STO-3G (5D, 7F)
 Ernie: Thresh=  0.10000D-02 Tol=  0.10000D-05 Strict=F.
    15 basis functions,    45 primitive gaussians,    15 cartesian basis functions
    10 alpha electrons        9 beta electrons
       nuclear repulsion energy        44.0334526516 Hartrees.
 IExCor=    0 DFT=F Ex=HF Corr=None ExCW=0 ScaHFX=  1.000000
 ScaDFX=  1.000000  1.000000  1.000000  1.000000 ScalE2=  1.000000  1.000000
 IRadAn=      5 IRanWt=     -1 IRanGd=            0 ICorTp=0 IEmpDi=  4
 NAtoms=    7 NActive=    7 NUniq=    7 SFac= 1.00D+00 NAtFMM=   60 NAOKFM=F Big=F
 Integral buffers will be    131072 words long.
 Raffenetti 2 integral format.
 Two-electron integral symmetry is turned off.
 Leave Link  301 at Wed Mar  6 17:50:59 2024, MaxMem=   104857600 cpu:               0.0 elap:               0.0
 (Enter /opt/g16/l402.exe)
 External calculation of energy, first and second derivatives.
 Running external command "python3 -u ../pes/h5co_pes.py R"
         input file       "/home/jh-li/scratch/g16/Gau-240053.EIn"
         output file      "/home/jh-li/scratch/g16/Gau-240053.EOu"
         message file     "/home/jh-li/scratch/g16/Gau-240053.EMs"
         fchk file        "/home/jh-li/scratch/g16/Gau-240053.EFC"
         mat. el file     "/home/jh-li/scratch/g16/Gau-240053.EUF"
 Recovered energy= -116.088515952     dipole=      0.000000000000      0.000000000000      0.000000000000
 NRF= 0 NRA=   0 NVA=   0 HaveQM=F NVQ=       0
 Convergence limit is  0.750E-04 MaxStp= 10000 StMxLn= 3.00D-04 StpMin= 1.00D-06.
 Convergence criteria             0.00011250 0.00007500 0.00045000 0.00030000
  Step  NS  ND Rises OKQ   Scale  Max. Force  RMS Force Max. Disp.  RMS Disp.     Energy   Flag
     1   0   0   F    T  1.00D+00 0.00000000 0.00000000 0.00000000 0.00000000 -116.0885160 ====
 Running external command "python3 -u ../pes/h5co_pes.py R"
         input file       "/home/jh-li/scratch/g16/Gau-240053.EIn"
         output file      "/home/jh-li/scratch/g16/Gau-240053.EOu"
         message file     "/home/jh-li/scratch/g16/Gau-240053.EMs"
         fchk file        "/home/jh-li/scratch/g16/Gau-240053.EFC"
         mat. el file     "/home/jh-li/scratch/g16/Gau-240053.EUF"
 Recovered energy= -116.088515952     dipole=      0.000000000000      0.000000000000      0.000000000000
 Energy=    -116.088516     NIter=   0.
 Dipole moment=       0.000000       0.000000       0.000000
 Leave Link  402 at Wed Mar  6 17:51:01 2024, MaxMem=   104857600 cpu:               0.0 elap:               2.0
 (Enter /opt/g16/l601.exe)
 Leave Link  601 at Wed Mar  6 17:51:01 2024, MaxMem=   104857600 cpu:               0.0 elap:               0.0
 (Enter /opt/g16/l716.exe)
 Dipole        = 0.00000000D+00 0.00000000D+00 0.00000000D+00
 -------------------------------------------------------------------
 Center     Atomic                   Forces (Hartrees/Bohr)
 Number     Number              X              Y              Z
 -------------------------------------------------------------------
      1        1          -0.000020976    0.000008022   -0.000006026
      2        1           0.000010714   -0.000005518    0.000001643
      3        1           0.000006736    0.000003944    0.000000620
      4        1           0.000010648   -0.000031671    0.000031471
      5        1           0.000001684   -0.000049966    0.000015241
      6        6          -0.000022900    0.000082976    0.000004645
      7        8           0.000012860   -0.000011464   -0.000038432
 -------------------------------------------------------------------
 Cartesian Forces:  Max     0.000082976 RMS     0.000026541
 Force constants in Cartesian coordinates: 
                1             2             3             4             5 
      1  0.391063D+00
      2  0.196627D+00  0.106554D+00
      3  0.119791D+00  0.751970D-01  0.968520D-01
      4  0.354212D-02  0.665624D-03  0.119406D-02  0.238307D+00
      5  0.659058D-03  0.457963D-04 -0.202337D-02  0.129792D+00  0.123857D+00
      6 -0.757267D-03 -0.411061D-02 -0.646114D-02  0.595400D-01  0.510761D-01
      7  0.736530D-03  0.173388D-03 -0.129496D-03 -0.140145D-01  0.142494D-01
      8  0.723625D-04 -0.878808D-03  0.172998D-03 -0.182777D-01  0.990708D-02
      9  0.209722D-02  0.161941D-02  0.352954D-02 -0.754680D-02  0.184985D-02
     10 -0.931879D-03  0.347427D-03 -0.666345D-03 -0.163209D-03 -0.129127D-01
     11 -0.153268D-02  0.788985D-03  0.592832D-04  0.619069D-02 -0.166743D-01
     12  0.260519D-02  0.162069D-02 -0.643146D-04 -0.955154D-03  0.216015D-05
     13 -0.219361D-03 -0.101344D-03  0.172872D-03  0.322748D-03  0.737458D-03
     14  0.177689D-02  0.541954D-03 -0.140237D-03 -0.341936D-02  0.360619D-02
     15 -0.108634D-02 -0.109827D-02 -0.628176D-04  0.175160D-02 -0.117987D-02
     16  0.208776D-02 -0.986332D-02 -0.392347D-01 -0.231450D+00 -0.126143D+00
     17  0.359599D-02 -0.450494D-02 -0.201113D-01 -0.118405D+00 -0.119038D+00
     18  0.925269D-02 -0.134877D-02 -0.244631D-01 -0.538884D-01 -0.463892D-01
     19 -0.396273D+00 -0.187854D+00 -0.811353D-01  0.346058D-02 -0.638859D-02
     20 -0.201195D+00 -0.102548D+00 -0.531539D-01  0.344982D-02 -0.169532D-02
     21 -0.131898D+00 -0.718782D-01 -0.693339D-01 -0.971678D-04 -0.333964D-02
                6             7             8             9            10 
      6  0.792480D-01
      7  0.225723D-02  0.270540D+00
      8  0.480063D-02 -0.985047D-01  0.795680D-01
      9  0.347896D-02 -0.682719D-01  0.384943D-01  0.791957D-01
     10  0.615080D-02 -0.248183D-02  0.145168D-01 -0.772554D-02  0.437337D-01
     11  0.656487D-02 -0.329056D-02 -0.167261D-01  0.568304D-02  0.591951D-02
     12  0.205853D-02  0.115754D-02  0.171631D-02  0.964456D-03 -0.313711D-02
     13 -0.848825D-03  0.495053D-03 -0.121828D-02  0.532027D-03 -0.123705D-01
     14  0.235101D-05  0.172770D-02  0.477973D-02 -0.147265D-02 -0.351882D-02
     15 -0.388856D-03 -0.119917D-03 -0.249218D-02  0.363246D-03  0.156260D-02
     16 -0.330887D-01 -0.263884D+00  0.997169D-01  0.477011D-01 -0.307520D-01
     17 -0.377744D-01  0.841698D-01 -0.770141D-01 -0.266138D-01 -0.403726D-02
     18 -0.608901D-01  0.628987D-01 -0.402850D-01 -0.633644D-01  0.224172D-02
     19 -0.332538D-01  0.861082D-02  0.369767D-02  0.332119D-01  0.297061D-02
     20 -0.205601D-01  0.147684D-02  0.368251D-03 -0.195621D-01 -0.317282D-03
     21 -0.170451D-01  0.220988D-02 -0.240954D-02 -0.241635D-01  0.157426D-02
               11            12            13            14            15 
     11 -0.427332D-01
     12  0.530242D-01  0.257162D-01
     13 -0.168150D-02  0.924110D-03  0.641861D-02
     14  0.183755D-01 -0.198213D-01 -0.213751D-02  0.490628D-01
     15 -0.159207D-01 -0.366470D-02  0.100620D-02 -0.225747D-01  0.176405D-01
     16 -0.652501D-02  0.309914D-02  0.511776D-02  0.873878D-02 -0.489499D-02
     17  0.533920D-01 -0.522960D-01  0.428809D-02 -0.780853D-01  0.454341D-01
     18 -0.651941D-01  0.102086D-01 -0.300799D-02  0.521177D-01 -0.222211D-01
     19  0.917500D-03 -0.369302D-02  0.230688D-03 -0.316611D-02  0.178040D-02
     20  0.362768D-02  0.157325D-01  0.114031D-03  0.169395D-02 -0.216069D-02
     21  0.157846D-01 -0.352106D-01  0.122162D-02 -0.810576D-02  0.832850D-02
               16            17            18            19            20 
     16  0.615223D+00
     17  0.420095D-01  0.280703D+00
     18 -0.774519D-02  0.160880D+00  0.433041D+00
     19 -0.963407D-01 -0.116165D-01 -0.975272D-02  0.477326D+00
     20 -0.792884D-02 -0.554897D-01 -0.597656D-01  0.204405D+00  0.154042D+00
     21  0.341640D-01 -0.695060D-01 -0.272277D+00  0.928367D-01  0.139456D+00
               21 
     21  0.409664D+00
 Leave Link  716 at Wed Mar  6 17:51:01 2024, MaxMem=   104857600 cpu:               0.0 elap:               0.0
 (Enter /opt/g16/l123.exe)
 IRC-IRC-IRC-IRC-IRC-IRC-IRC-IRC-IRC-IRC-IRC-IRC-IRC-IRC-IRC-IRC-IRC-IRC
          ******** Start new reaction path calculation ********
 Current Structure is TS -> form Hessian eigenvectors.
                            Diagonalizing Hessian.
 Supplied step size of   0.0300 bohr.
    Integration on MW PES will use step size of   0.0314 sqrt(amu)*bohr.
 Point Number:   0          Path Number:   1
 Calculating another point on the path.
 Point Number  1 in FORWARD path direction.
 Using LQA Reaction Path Following.
 IRC-IRC-IRC-IRC-IRC-IRC-IRC-IRC-IRC-IRC-IRC-IRC-IRC-IRC-IRC-IRC-IRC-IRC
 Leave Link  123 at Wed Mar  6 17:51:02 2024, MaxMem=   104857600 cpu:               0.0 elap:               0.0
 (Enter /opt/g16/l202.exe)
                          Input orientation:                          
 ---------------------------------------------------------------------
 Center     Atomic      Atomic             Coordinates (Angstroms)
 Number     Number       Type             X           Y           Z
 ---------------------------------------------------------------------
      1          1           0       -0.752170   -0.494075   -1.000535
      2          1           0        0.838134    0.814258    0.933339
      3          1           0       -0.977834    0.657065    0.946264
      4          1           0        0.067997   -0.882901    1.336351
      5          1           0        0.107957   -1.734928    1.766415
      6          6           0       -0.024467    0.232234    0.628272
      7          8           0        0.063466   -0.070860   -0.722246
 ---------------------------------------------------------------------
                    Distance matrix (angstroms):
                    1          2          3          4          5
     1  H    0.000000
     2  H    2.825008   0.000000
     3  H    2.272900   1.822805   0.000000
     4  H    2.506970   1.906798   1.901953   0.000000
     5  H    3.152070   2.779482   2.751948   0.955249   0.000000
     6  C    1.926159   1.084389   1.091104   1.324180   2.276539
     7  O    0.960113   2.030888   2.097166   2.212974   2.994083
                    6          7
     6  C    0.000000
     7  O    1.386902   0.000000
 Symmetry turned off by external request.
 Stoichiometry    CH5O(2)
 Framework group  C1[X(CH5O)]
 Deg. of freedom    15
 Full point group                 C1      NOp   1
 Rotational constants (GHZ):          61.4551758          21.8345385          18.9208367
 Leave Link  202 at Wed Mar  6 17:51:02 2024, MaxMem=   104857600 cpu:               0.0 elap:               0.0
 (Enter /opt/g16/l301.exe)
 Standard basis: STO-3G (5D, 7F)
 Ernie: Thresh=  0.10000D-02 Tol=  0.10000D-05 Strict=F.
    15 basis functions,    45 primitive gaussians,    15 cartesian basis functions
    10 alpha electrons        9 beta electrons
       nuclear repulsion energy        44.0145134645 Hartrees.
 IExCor=    0 DFT=F Ex=HF Corr=None ExCW=0 ScaHFX=  1.000000
 ScaDFX=  1.000000  1.000000  1.000000  1.000000 ScalE2=  1.000000  1.000000
 IRadAn=      5 IRanWt=     -1 IRanGd=            0 ICorTp=0 IEmpDi=  4
 NAtoms=    7 NActive=    7 NUniq=    7 SFac= 1.00D+00 NAtFMM=   60 NAOKFM=F Big=F
 Integral buffers will be    131072 words long.
 Raffenetti 2 integral format.
 Two-electron integral symmetry is turned off.
 Leave Link  301 at Wed Mar  6 17:51:02 2024, MaxMem=   104857600 cpu:               0.1 elap:               0.1
 (Enter /opt/g16/l402.exe)
 External calculation of energy, first and second derivatives.
 Running external command "python3 -u ../pes/h5co_pes.py R"
         input file       "/home/jh-li/scratch/g16/Gau-240053.EIn"
         output file      "/home/jh-li/scratch/g16/Gau-240053.EOu"
         message file     "/home/jh-li/scratch/g16/Gau-240053.EMs"
         fchk file        "/home/jh-li/scratch/g16/Gau-240053.EFC"
         mat. el file     "/home/jh-li/scratch/g16/Gau-240053.EUF"
 Recovered energy= -116.088561195     dipole=      0.000000000000      0.000000000000      0.000000000000
 NRF= 0 NRA=   0 NVA=   0 HaveQM=F NVQ=       0
 Convergence limit is  0.750E-04 MaxStp= 10000 StMxLn= 3.00D-04 StpMin= 1.00D-06.
 Convergence criteria             0.00011250 0.00007500 0.00045000 0.00030000
  Step  NS  ND Rises OKQ   Scale  Max. Force  RMS Force Max. Disp.  RMS Disp.     Energy   Flag
     1   0   0   F    T  1.00D+00 0.00000000 0.00000000 0.00000000 0.00000000 -116.0885612 ====
 Running external command "python3 -u ../pes/h5co_pes.py R"
         input file       "/home/jh-li/scratch/g16/Gau-240053.EIn"
         output file      "/home/jh-li/scratch/g16/Gau-240053.EOu"
         message file     "/home/jh-li/scratch/g16/Gau-240053.EMs"
         fchk file        "/home/jh-li/scratch/g16/Gau-240053.EFC"
         mat. el file     "/home/jh-li/scratch/g16/Gau-240053.EUF"
 Recovered energy= -116.088561195     dipole=      0.000000000000      0.000000000000      0.000000000000
 Energy=    -116.088561     NIter=   0.
 Dipole moment=       0.000000       0.000000       0.000000
 Leave Link  402 at Wed Mar  6 17:51:03 2024, MaxMem=   104857600 cpu:               0.1 elap:               1.9
 (Enter /opt/g16/l716.exe)
 Dipole        = 0.00000000D+00 0.00000000D+00 0.00000000D+00
 -------------------------------------------------------------------
 Center     Atomic                   Forces (Hartrees/Bohr)
 Number     Number              X              Y              Z
 -------------------------------------------------------------------
      1        1          -0.000043979    0.000033873    0.000013305
      2        1           0.000146450   -0.000192554    0.000073050
      3        1          -0.000088485   -0.000255913    0.000088444
      4        1           0.000173706   -0.002299206    0.001266591
      5        1          -0.000019561    0.000410731   -0.000196943
      6        6          -0.000214509    0.002466786   -0.001726391
      7        8           0.000045043   -0.000165464    0.000490948
 -------------------------------------------------------------------
 Cartesian Forces:  Max     0.002466786 RMS     0.000890661
 Force constants in Cartesian coordinates: 
                1             2             3             4             5 
      1  0.391508D+00
      2  0.196694D+00  0.106604D+00
      3  0.119967D+00  0.752496D-01  0.969379D-01
      4  0.361753D-02  0.706432D-03  0.132393D-02  0.239381D+00
      5  0.645145D-03  0.794898D-04 -0.204029D-02  0.129652D+00  0.122355D+00
      6 -0.672335D-03 -0.402831D-02 -0.629635D-02  0.601051D-01  0.517318D-01
      7  0.665778D-03  0.121469D-03 -0.344172D-03 -0.139672D-01  0.142354D-01
      8  0.144318D-03 -0.904346D-03  0.243791D-03 -0.183137D-01  0.974204D-02
      9  0.221488D-02  0.176424D-02  0.370889D-02 -0.769996D-02  0.176605D-02
     10 -0.898698D-03  0.333096D-03 -0.678306D-03 -0.221179D-03 -0.122424D-01
     11 -0.163098D-02  0.902712D-03  0.326027D-03  0.619723D-02 -0.157667D-01
     12  0.252779D-02  0.145576D-02 -0.154375D-03 -0.102374D-02 -0.774507D-04
     13 -0.187124D-03 -0.884501D-04  0.188610D-03  0.352022D-03  0.758620D-03
     14  0.164571D-02  0.359528D-03 -0.366953D-03 -0.341476D-02  0.338807D-02
     15 -0.965448D-03 -0.995138D-03  0.110892D-03  0.175282D-02 -0.104527D-02
     16  0.196140D-02 -0.992130D-02 -0.392085D-01 -0.232595D+00 -0.126559D+00
     17  0.384079D-02 -0.430545D-02 -0.202227D-01 -0.118185D+00 -0.117923D+00
     18  0.891666D-02 -0.152141D-02 -0.248201D-01 -0.541403D-01 -0.467901D-01
     19 -0.396662D+00 -0.187850D+00 -0.812565D-01  0.343892D-02 -0.649627D-02
     20 -0.201335D+00 -0.102737D+00 -0.531889D-01  0.335418D-02 -0.186648D-02
     21 -0.131983D+00 -0.719232D-01 -0.694902D-01 -0.319966D-03 -0.354860D-02
                6             7             8             9            10 
      6  0.795293D-01
      7  0.245957D-02  0.271340D+00
      8  0.471264D-02 -0.977373D-01  0.780932D-01
      9  0.353459D-02 -0.690060D-01  0.388941D-01  0.793911D-01
     10  0.584835D-02 -0.229985D-02  0.137079D-01 -0.739935D-02  0.423557D-01
     11  0.611869D-02 -0.322093D-02 -0.160987D-01  0.524743D-02  0.600524D-02
     12  0.199270D-02  0.110821D-02  0.167481D-02  0.890720D-03 -0.316230D-02
     13 -0.887553D-03  0.543872D-03 -0.121205D-02  0.530810D-03 -0.131932D-01
     14  0.260924D-03  0.165788D-02  0.459634D-02 -0.123469D-02 -0.327662D-02
     15 -0.490665D-03 -0.765070D-04 -0.238394D-02  0.277587D-03  0.143090D-02
     16 -0.334165D-01 -0.264784D+00  0.996861D-01  0.481403D-01 -0.284598D-01
     17 -0.382619D-01  0.833407D-01 -0.757725D-01 -0.268789D-01 -0.425147D-02
     18 -0.611284D-01  0.632939D-01 -0.405572D-01 -0.635884D-01  0.237020D-02
     19 -0.334373D-01  0.850412D-02  0.372776D-02  0.332173D-01  0.272229D-02
     20 -0.205347D-01  0.160478D-02  0.347920D-03 -0.195596D-01 -0.278130D-03
     21 -0.171408D-01  0.256718D-02 -0.258664D-02 -0.242103D-01  0.159095D-02
               11            12            13            14            15 
     11 -0.413837D-01
     12  0.514191D-01  0.245373D-01
     13 -0.135234D-02  0.726939D-03  0.712172D-02
     14  0.104622D-01 -0.158774D-01 -0.250172D-02  0.578775D-01
     15 -0.123198D-01 -0.651561D-02  0.118764D-02 -0.267000D-01  0.204193D-01
     16 -0.731570D-02  0.357704D-02  0.511508D-02  0.914086D-02 -0.512316D-02
     17  0.590742D-01 -0.538703D-01  0.431235D-02 -0.787580D-01  0.458151D-01
     18 -0.655592D-01  0.122118D-01 -0.291304D-02  0.512219D-01 -0.218179D-01
     19  0.131553D-02 -0.375334D-02  0.242531D-03 -0.324977D-02  0.179330D-02
     20  0.286152D-02  0.152535D-01  0.846960D-04  0.204803D-02 -0.236176D-02
     21  0.147666D-01 -0.329530D-01  0.116652D-02 -0.729638D-02  0.801070D-02
               16            17            18            19            20 
     16  0.615096D+00
     17  0.429061D-01  0.272496D+00
     18 -0.821124D-02  0.163786D+00  0.432900D+00
     19 -0.963305D-01 -0.119581D-01 -0.931722D-02  0.478069D+00
     20 -0.793197D-02 -0.548485D-01 -0.605680D-01  0.204506D+00  0.154193D+00
     21  0.342428D-01 -0.703551D-01 -0.273725D+00  0.927474D-01  0.140946D+00
               21 
     21  0.409471D+00
 Leave Link  716 at Wed Mar  6 17:51:04 2024, MaxMem=   104857600 cpu:               0.0 elap:               0.0
 (Enter /opt/g16/l123.exe)
 IRC-IRC-IRC-IRC-IRC-IRC-IRC-IRC-IRC-IRC-IRC-IRC-IRC-IRC-IRC-IRC-IRC-IRC
 Pt  1 Step number   1 out of a maximum of  10
 Using modified Bulirsch-Stoer corrector integration.
   Using distance weighted interpolants to fit PES.
 PreDWI: IReCr0= 2 IReCr1= 1 IReCr2= 1 IReCr3= 1
 Modified Bulirsch-Stoer Extrapolation Cycles:
    EPS =    0.000010000000000
    Cycle     1 NS=    48
      PEZero:  N= 2 I= 1 D=  8.17D-05 Err=  1.99D-04
    Cycle     2 NS=    64 Truncation Error =  0.000198858
      PEZero:  N= 3 I= 2 D=  8.17D-05 Err=  1.33D-04
      PEZero:  N= 3 I= 1 D=  1.63D-04 Err=  6.31D-09
    Cycle     3 NS=    96 Truncation Error =  0.000000006
 BS completed in    3 cycles and     208 integration steps.
 Maximum DWI energy   std dev =  0.000000094 at pt     1
 Maximum DWI gradient std dev =  0.011919154 at pt    21
 SUMMARY OF CORRECTOR INTEGRATION:
   Predictor End Point Energy =  -116.088561
   Old End Point Energy       =  -116.088561
   Corrected End Point Energy =  -116.088561
   Predictor End-Start Dist.  =     0.031369
   Old End-Start Dist.        =     0.031369
   New End-Start Dist.        =     0.031358
   New End-Old End Dist.      =     0.000805
 CORRECTOR INTEGRATION CONVERGENCE:
   Recorrection delta-x convergence threshold:    0.010000
   Delta-x Convergence Met
 Point Number:   1          Path Number:   1
                    CURRENT STRUCTURE
                Cartesian Coordinates (Ang):                
 ---------------------------------------------------------------------
 Center     Atomic                     Coordinates (Angstroms)
 Number     Number                        X           Y           Z
 ---------------------------------------------------------------------
      1          1                   -0.752212   -0.494026   -1.000543
      2          1                    0.838156    0.814260    0.933333
      3          1                   -0.977820    0.657105    0.946255
      4          1                    0.068032   -0.882937    1.336424
      5          1                    0.107975   -1.735286    1.766564
      6          6                   -0.024474    0.232265    0.628275
      7          8                    0.063467   -0.070864   -0.722258
 ---------------------------------------------------------------------
   CHANGE IN THE REACTION COORDINATE =    0.03136
   NET REACTION COORDINATE UP TO THIS POINT =    0.03136
  # OF POINTS ALONG THE PATH =   1
  # OF STEPS =   1

 Calculating another point on the path.
 Point Number  2 in FORWARD path direction.
 Using LQA Reaction Path Following.
   LQA: T_Est iteration completed in    3 iterations.
 IRC-IRC-IRC-IRC-IRC-IRC-IRC-IRC-IRC-IRC-IRC-IRC-IRC-IRC-IRC-IRC-IRC-IRC
 Leave Link  123 at Wed Mar  6 17:51:04 2024, MaxMem=   104857600 cpu:               0.0 elap:               0.0
 (Enter /opt/g16/l202.exe)
                          Input orientation:                          
 ---------------------------------------------------------------------
 Center     Atomic      Atomic             Coordinates (Angstroms)
 Number     Number       Type             X           Y           Z
 ---------------------------------------------------------------------
      1          1           0       -0.752387   -0.493815   -1.000442
      2          1           0        0.838964    0.813165    0.933754
      3          1           0       -0.978388    0.655637    0.946774
      4          1           0        0.069003   -0.896334    1.343742
      5          1           0        0.107855   -1.732621    1.765303
      6          6           0       -0.024565    0.233444    0.627433
      7          8           0        0.063478   -0.070924   -0.722072
 ---------------------------------------------------------------------
                    Distance matrix (angstroms):
                    1          2          3          4          5
     1  H    0.000000
     2  H    2.825191   0.000000
     3  H    2.272436   1.824212   0.000000
     4  H    2.516327   1.919197   1.913956   0.000000
     5  H    3.150238   2.776152   2.748398   0.937336   0.000000
     6  C    1.925774   1.084247   1.090873   1.340989   2.275454
     7  O    0.960188   2.030948   2.097241   2.224616   2.991695
                    6          7
     6  C    0.000000
     7  O    1.386201   0.000000
 Symmetry turned off by external request.
 Stoichiometry    CH5O(2)
 Framework group  C1[X(CH5O)]
 Deg. of freedom    15
 Full point group                 C1      NOp   1
 Rotational constants (GHZ):          61.2887574          21.8311194          18.9067768
 Leave Link  202 at Wed Mar  6 17:51:04 2024, MaxMem=   104857600 cpu:               0.0 elap:               0.0
 (Enter /opt/g16/l301.exe)
 Standard basis: STO-3G (5D, 7F)
 Ernie: Thresh=  0.10000D-02 Tol=  0.10000D-05 Strict=F.
    15 basis functions,    45 primitive gaussians,    15 cartesian basis functions
    10 alpha electrons        9 beta electrons
       nuclear repulsion energy        43.9929972592 Hartrees.
 IExCor=    0 DFT=F Ex=HF Corr=None ExCW=0 ScaHFX=  1.000000
 ScaDFX=  1.000000  1.000000  1.000000  1.000000 ScalE2=  1.000000  1.000000
 IRadAn=      5 IRanWt=     -1 IRanGd=            0 ICorTp=0 IEmpDi=  4
 NAtoms=    7 NActive=    7 NUniq=    7 SFac= 1.00D+00 NAtFMM=   60 NAOKFM=F Big=F
 Integral buffers will be    131072 words long.
 Raffenetti 2 integral format.
 Two-electron integral symmetry is turned off.
 Leave Link  301 at Wed Mar  6 17:51:04 2024, MaxMem=   104857600 cpu:               0.1 elap:               0.1
 (Enter /opt/g16/l402.exe)
 External calculation of energy, first and second derivatives.
 Running external command "python3 -u ../pes/h5co_pes.py R"
         input file       "/home/jh-li/scratch/g16/Gau-240053.EIn"
         output file      "/home/jh-li/scratch/g16/Gau-240053.EOu"
         message file     "/home/jh-li/scratch/g16/Gau-240053.EMs"
         fchk file        "/home/jh-li/scratch/g16/Gau-240053.EFC"
         mat. el file     "/home/jh-li/scratch/g16/Gau-240053.EUF"
 Recovered energy= -116.088691315     dipole=      0.000000000000      0.000000000000      0.000000000000
 NRF= 0 NRA=   0 NVA=   0 HaveQM=F NVQ=       0
 Convergence limit is  0.750E-04 MaxStp= 10000 StMxLn= 3.00D-04 StpMin= 1.00D-06.
 Convergence criteria             0.00011250 0.00007500 0.00045000 0.00030000
  Step  NS  ND Rises OKQ   Scale  Max. Force  RMS Force Max. Disp.  RMS Disp.     Energy   Flag
     1   0   0   F    T  1.00D+00 0.00000000 0.00000000 0.00000000 0.00000000 -116.0886913 ====
 Running external command "python3 -u ../pes/h5co_pes.py R"
         input file       "/home/jh-li/scratch/g16/Gau-240053.EIn"
         output file      "/home/jh-li/scratch/g16/Gau-240053.EOu"
         message file     "/home/jh-li/scratch/g16/Gau-240053.EMs"
         fchk file        "/home/jh-li/scratch/g16/Gau-240053.EFC"
         mat. el file     "/home/jh-li/scratch/g16/Gau-240053.EUF"
 Recovered energy= -116.088691315     dipole=      0.000000000000      0.000000000000      0.000000000000
 Energy=    -116.088691     NIter=   0.
 Dipole moment=       0.000000       0.000000       0.000000
 Leave Link  402 at Wed Mar  6 17:51:06 2024, MaxMem=   104857600 cpu:               0.1 elap:               1.9
 (Enter /opt/g16/l716.exe)
 Dipole        = 0.00000000D+00 0.00000000D+00 0.00000000D+00
 -------------------------------------------------------------------
 Center     Atomic                   Forces (Hartrees/Bohr)
 Number     Number              X              Y              Z
 -------------------------------------------------------------------
      1        1          -0.000056770    0.000069331    0.000039715
      2        1           0.000266789   -0.000354638    0.000135501
      3        1          -0.000188212   -0.000488091    0.000166770
      4        1           0.000323791   -0.004412872    0.002410459
      5        1          -0.000031472    0.000718918   -0.000329916
      6        6          -0.000381308    0.004794422   -0.003386596
      7        8           0.000065752   -0.000326924    0.000972847
 -------------------------------------------------------------------
 Cartesian Forces:  Max     0.004794422 RMS     0.001721021
 Force constants in Cartesian coordinates: 
                1             2             3             4             5 
      1  0.391986D+00
      2  0.196689D+00  0.106586D+00
      3  0.120120D+00  0.752693D-01  0.970081D-01
      4  0.370436D-02  0.753590D-03  0.144470D-02  0.240434D+00
      5  0.635103D-03  0.115210D-03 -0.205731D-02  0.129495D+00  0.120846D+00
      6 -0.584519D-03 -0.394387D-02 -0.613497D-02  0.606599D-01  0.523616D-01
      7  0.585833D-03  0.622685D-04 -0.551910D-03 -0.138988D-01  0.142300D-01
      8  0.218984D-03 -0.926880D-03  0.315451D-03 -0.183469D-01  0.957094D-02
      9  0.233405D-02  0.190817D-02  0.388582D-02 -0.783894D-02  0.168738D-02
     10 -0.864799D-03  0.319752D-03 -0.688959D-03 -0.276295D-03 -0.115862D-01
     11 -0.169709D-02  0.103598D-02  0.602322D-03  0.616468D-02 -0.148629D-01
     12  0.243496D-02  0.128131D-02 -0.252251D-03 -0.107213D-02 -0.158124D-03
     13 -0.151763D-03 -0.733292D-04  0.204903D-03  0.379449D-03  0.773480D-03
     14  0.149079D-02  0.155708D-03 -0.614637D-03 -0.337766D-02  0.315282D-02
     15 -0.833832D-03 -0.877580D-03  0.293654D-03  0.173751D-02 -0.906359D-03
     16  0.182258D-02 -0.998793D-02 -0.391840D-01 -0.233747D+00 -0.126953D+00
     17  0.408209D-02 -0.410915D-02 -0.203115D-01 -0.117935D+00 -0.116768D+00
     18  0.861779D-02 -0.167540D-02 -0.251608D-01 -0.543826D-01 -0.471562D-01
     19 -0.397077D+00 -0.187769D+00 -0.813529D-01  0.340897D-02 -0.660075D-02
     20 -0.201415D+00 -0.102857D+00 -0.532028D-01  0.324254D-02 -0.204558D-02
     21 -0.132082D+00 -0.719600D-01 -0.696426D-01 -0.550694D-03 -0.377481D-02
                6             7             8             9            10 
      6  0.797833D-01
      7  0.266627D-02  0.272161D+00
      8  0.462624D-02 -0.970079D-01  0.766504D-01
      9  0.359006D-02 -0.697418D-01  0.392882D-01  0.795613D-01
     10  0.554957D-02 -0.213043D-02  0.129188D-01 -0.707386D-02  0.408437D-01
     11  0.569239D-02 -0.314114D-02 -0.154471D-01  0.482703D-02  0.591311D-02
     12  0.192001D-02  0.105719D-02  0.161624D-02  0.815039D-03 -0.308963D-02
     13 -0.920691D-03  0.591605D-03 -0.119620D-02  0.527017D-03 -0.138590D-01
     14  0.501648D-03  0.157191D-02  0.438697D-02 -0.100528D-02 -0.296101D-02
     15 -0.576869D-03 -0.257511D-04 -0.226501D-02  0.201780D-03  0.126225D-02
     16 -0.337684D-01 -0.265714D+00  0.996605D-01  0.485868D-01 -0.261838D-01
     17 -0.387268D-01  0.825469D-01 -0.745476D-01 -0.271505D-01 -0.436294D-02
     18 -0.613182D-01  0.636689D-01 -0.408018D-01 -0.637803D-01  0.243946D-02
     19 -0.336028D-01  0.840665D-02  0.375565D-02  0.332045D-01  0.247621D-02
     20 -0.205117D-01  0.174009D-02  0.317154D-03 -0.195559D-01 -0.243852D-03
     21 -0.172629D-01  0.292949D-02 -0.278168D-02 -0.242693D-01  0.160167D-02
               11            12            13            14            15 
     11 -0.372811D-01
     12  0.482232D-01  0.240925D-01
     13 -0.955915D-03  0.495389D-03  0.770889D-02
     14  0.122786D-02 -0.111702D-01 -0.289805D-02  0.674753D-01
     15 -0.796800D-02 -0.958382D-02  0.138518D-02 -0.312583D-01  0.232903D-01
     16 -0.796201D-02  0.396858D-02  0.507197D-02  0.948709D-02 -0.532191D-02
     17  0.632779D-01 -0.545888D-01  0.429727D-02 -0.788424D-01  0.458494D-01
     18 -0.650541D-01  0.137153D-01 -0.279870D-02  0.499952D-01 -0.212700D-01
     19  0.167653D-02 -0.379387D-02  0.253669D-03 -0.331149D-02  0.179612D-02
     20  0.210036D-02  0.147749D-01  0.539630D-04  0.241700D-02 -0.256382D-02
     21  0.136740D-01 -0.306960D-01  0.110676D-02 -0.643922D-02  0.763906D-02
               16            17            18            19            20 
     16  0.615031D+00
     17  0.436684D-01  0.265142D+00
     18 -0.860945D-02  0.166077D+00  0.432894D+00
     19 -0.962795D-01 -0.122914D-01 -0.893611D-02  0.478796D+00
     20 -0.790808D-02 -0.541885D-01 -0.613772D-01  0.204535D+00  0.154256D+00
     21  0.343291D-01 -0.711380D-01 -0.275049D+00  0.926782D-01  0.142423D+00
               21 
     21  0.409244D+00
 Leave Link  716 at Wed Mar  6 17:51:06 2024, MaxMem=   104857600 cpu:               0.0 elap:               0.0
 (Enter /opt/g16/l123.exe)
 IRC-IRC-IRC-IRC-IRC-IRC-IRC-IRC-IRC-IRC-IRC-IRC-IRC-IRC-IRC-IRC-IRC-IRC
 Pt  2 Step number   1 out of a maximum of  10
 Using modified Bulirsch-Stoer corrector integration.
   Using distance weighted interpolants to fit PES.
 PreDWI: IReCr0= 2 IReCr1= 1 IReCr2= 1 IReCr3= 1
 Modified Bulirsch-Stoer Extrapolation Cycles:
    EPS =    0.000010000000000
    Cycle     1 NS=    48
      PEZero:  N= 2 I= 1 D=  1.63D-04 Err=  5.91D-06
    Cycle     2 NS=    64 Truncation Error =  0.000005911
 BS completed in    2 cycles and     112 integration steps.
 Maximum DWI energy   std dev =  0.000000197 at pt    12
 Maximum DWI gradient std dev =  0.008716990 at pt    12
 SUMMARY OF CORRECTOR INTEGRATION:
   Predictor End Point Energy =  -116.088691
   Old End Point Energy       =  -116.088691
   Corrected End Point Energy =  -116.088691
   Predictor End-Start Dist.  =     0.031358
   Old End-Start Dist.        =     0.031358
   New End-Start Dist.        =     0.031356
   New End-Old End Dist.      =     0.000205
 CORRECTOR INTEGRATION CONVERGENCE:
   Recorrection delta-x convergence threshold:    0.010000
   Delta-x Convergence Met
 Point Number:   2          Path Number:   1
                    CURRENT STRUCTURE
                Cartesian Coordinates (Ang):                
 ---------------------------------------------------------------------
 Center     Atomic                     Coordinates (Angstroms)
 Number     Number                        X           Y           Z
 ---------------------------------------------------------------------
      1          1                   -0.752388   -0.493813   -1.000439
      2          1                    0.838965    0.813168    0.933752
      3          1                   -0.978388    0.655637    0.946772
      4          1                    0.069007   -0.896340    1.343748
      5          1                    0.107860   -1.732712    1.765350
      6          6                   -0.024567    0.233452    0.627429
      7          8                    0.063478   -0.070925   -0.722072
 ---------------------------------------------------------------------
   CHANGE IN THE REACTION COORDINATE =    0.03136
   NET REACTION COORDINATE UP TO THIS POINT =    0.06271
  # OF POINTS ALONG THE PATH =   2
  # OF STEPS =   1

 Calculating another point on the path.
 Point Number  3 in FORWARD path direction.
 Using LQA Reaction Path Following.
   LQA: T_Est iteration completed in    3 iterations.
 IRC-IRC-IRC-IRC-IRC-IRC-IRC-IRC-IRC-IRC-IRC-IRC-IRC-IRC-IRC-IRC-IRC-IRC
 Leave Link  123 at Wed Mar  6 17:51:06 2024, MaxMem=   104857600 cpu:               0.1 elap:               0.1
 (Enter /opt/g16/l202.exe)
                          Input orientation:                          
 ---------------------------------------------------------------------
 Center     Atomic      Atomic             Coordinates (Angstroms)
 Number     Number       Type             X           Y           Z
 ---------------------------------------------------------------------
      1          1           0       -0.752564   -0.493603   -1.000312
      2          1           0        0.839773    0.812106    0.934161
      3          1           0       -0.978972    0.654158    0.947274
      4          1           0        0.069995   -0.909778    1.351084
      5          1           0        0.107773   -1.730674    1.764428
      6          6           0       -0.024664    0.234690    0.626558
      7          8           0        0.063492   -0.070988   -0.721887
 ---------------------------------------------------------------------
                    Distance matrix (angstroms):
                    1          2          3          4          5
     1  H    0.000000
     2  H    2.825350   0.000000
     3  H    2.271940   1.825638   0.000000
     4  H    2.525643   1.931649   1.925952   0.000000
     5  H    3.148700   2.773246   2.745210   0.919864   0.000000
     6  C    1.925346   1.084104   1.090649   1.357832   2.274850
     7  O    0.960245   2.031001   2.097300   2.236251   2.989695
                    6          7
     6  C    0.000000
     7  O    1.385466   0.000000
 Symmetry turned off by external request.
 Stoichiometry    CH5O(2)
 Framework group  C1[X(CH5O)]
 Deg. of freedom    15
 Full point group                 C1      NOp   1
 Rotational constants (GHZ):          61.1091255          21.8277585          18.8913957
 Leave Link  202 at Wed Mar  6 17:51:06 2024, MaxMem=   104857600 cpu:               0.0 elap:               0.0
 (Enter /opt/g16/l301.exe)
 Standard basis: STO-3G (5D, 7F)
 Ernie: Thresh=  0.10000D-02 Tol=  0.10000D-05 Strict=F.
    15 basis functions,    45 primitive gaussians,    15 cartesian basis functions
    10 alpha electrons        9 beta electrons
       nuclear repulsion energy        43.9725233257 Hartrees.
 IExCor=    0 DFT=F Ex=HF Corr=None ExCW=0 ScaHFX=  1.000000
 ScaDFX=  1.000000  1.000000  1.000000  1.000000 ScalE2=  1.000000  1.000000
 IRadAn=      5 IRanWt=     -1 IRanGd=            0 ICorTp=0 IEmpDi=  4
 NAtoms=    7 NActive=    7 NUniq=    7 SFac= 1.00D+00 NAtFMM=   60 NAOKFM=F Big=F
 Integral buffers will be    131072 words long.
 Raffenetti 2 integral format.
 Two-electron integral symmetry is turned off.
 Leave Link  301 at Wed Mar  6 17:51:06 2024, MaxMem=   104857600 cpu:               0.1 elap:               0.1
 (Enter /opt/g16/l402.exe)
 External calculation of energy, first and second derivatives.
 Running external command "python3 -u ../pes/h5co_pes.py R"
         input file       "/home/jh-li/scratch/g16/Gau-240053.EIn"
         output file      "/home/jh-li/scratch/g16/Gau-240053.EOu"
         message file     "/home/jh-li/scratch/g16/Gau-240053.EMs"
         fchk file        "/home/jh-li/scratch/g16/Gau-240053.EFC"
         mat. el file     "/home/jh-li/scratch/g16/Gau-240053.EUF"
 Recovered energy= -116.088898000     dipole=      0.000000000000      0.000000000000      0.000000000000
 NRF= 0 NRA=   0 NVA=   0 HaveQM=F NVQ=       0
 Convergence limit is  0.750E-04 MaxStp= 10000 StMxLn= 3.00D-04 StpMin= 1.00D-06.
 Convergence criteria             0.00011250 0.00007500 0.00045000 0.00030000
  Step  NS  ND Rises OKQ   Scale  Max. Force  RMS Force Max. Disp.  RMS Disp.     Energy   Flag
     1   0   0   F    T  1.00D+00 0.00000000 0.00000000 0.00000000 0.00000000 -116.0888980 ====
 Running external command "python3 -u ../pes/h5co_pes.py R"
         input file       "/home/jh-li/scratch/g16/Gau-240053.EIn"
         output file      "/home/jh-li/scratch/g16/Gau-240053.EOu"
         message file     "/home/jh-li/scratch/g16/Gau-240053.EMs"
         fchk file        "/home/jh-li/scratch/g16/Gau-240053.EFC"
         mat. el file     "/home/jh-li/scratch/g16/Gau-240053.EUF"
 Recovered energy= -116.088898000     dipole=      0.000000000000      0.000000000000      0.000000000000
 Energy=    -116.088898     NIter=   0.
 Dipole moment=       0.000000       0.000000       0.000000
 Leave Link  402 at Wed Mar  6 17:51:08 2024, MaxMem=   104857600 cpu:               0.0 elap:               1.9
 (Enter /opt/g16/l716.exe)
 Dipole        = 0.00000000D+00 0.00000000D+00 0.00000000D+00
 -------------------------------------------------------------------
 Center     Atomic                   Forces (Hartrees/Bohr)
 Number     Number              X              Y              Z
 -------------------------------------------------------------------
      1        1          -0.000084009    0.000103343    0.000067445
      2        1           0.000382538   -0.000492856    0.000189604
      3        1          -0.000276820   -0.000698660    0.000232496
      4        1           0.000469539   -0.006281514    0.003432336
      5        1          -0.000029073    0.000713392   -0.000306653
      6        6          -0.000575007    0.007155017   -0.004973109
      7        8           0.000111313   -0.000496756    0.001366380
 -------------------------------------------------------------------
 Cartesian Forces:  Max     0.007155017 RMS     0.002502492
 Force constants in Cartesian coordinates: 
                1             2             3             4             5 
      1  0.392475D+00
      2  0.196731D+00  0.106601D+00
      3  0.120271D+00  0.752993D-01  0.970597D-01
      4  0.380528D-02  0.810579D-03  0.156205D-02  0.241449D+00
      5  0.626049D-03  0.152901D-03 -0.207384D-02  0.129336D+00  0.119351D+00
      6 -0.494197D-03 -0.385462D-02 -0.597083D-02  0.612200D-01  0.529849D-01
      7  0.491684D-03 -0.590641D-05 -0.756929D-03 -0.138133D-01  0.142316D-01
      8  0.297156D-03 -0.947598D-03  0.386580D-03 -0.183806D-01  0.938848D-02
      9  0.246056D-02  0.205337D-02  0.406021D-02 -0.796768D-02  0.160586D-02
     10 -0.828371D-03  0.306962D-03 -0.699150D-03 -0.332292D-03 -0.109476D-01
     11 -0.171485D-02  0.119992D-02  0.904408D-03  0.608770D-02 -0.139612D-01
     12  0.231696D-02  0.109233D-02 -0.365424D-03 -0.110023D-02 -0.244778D-03
     13 -0.113229D-03 -0.559001D-04  0.221807D-03  0.406773D-03  0.782678D-03
     14  0.129012D-02 -0.796517D-04 -0.892144D-03 -0.329874D-02  0.290383D-02
     15 -0.679815D-03 -0.740850D-03  0.490099D-03  0.170258D-02 -0.764702D-03
     16  0.166663D-02 -0.100588D-01 -0.391537D-01 -0.234874D+00 -0.127331D+00
     17  0.433459D-02 -0.391140D-02 -0.203872D-01 -0.117668D+00 -0.115593D+00
     18  0.835714D-02 -0.180386D-02 -0.254754D-01 -0.546210D-01 -0.474881D-01
     19 -0.397492D+00 -0.187733D+00 -0.814535D-01  0.336353D-02 -0.670468D-02
     20 -0.201559D+00 -0.103015D+00 -0.532361D-01  0.310867D-02 -0.223443D-02
     21 -0.132225D+00 -0.720434D-01 -0.698011D-01 -0.798221D-03 -0.402305D-02
                6             7             8             9            10 
      6  0.800207D-01
      7  0.288078D-02  0.272951D+00
      8  0.453490D-02 -0.962615D-01  0.752108D-01
      9  0.364286D-02 -0.704738D-01  0.396628D-01  0.797180D-01
     10  0.525398D-02 -0.197502D-02  0.121546D-01 -0.674967D-02  0.391104D-01
     11  0.528361D-02 -0.303998D-02 -0.147814D-01  0.442467D-02  0.562352D-02
     12  0.184298D-02  0.100380D-02  0.154343D-02  0.733962D-03 -0.290957D-02
     13 -0.949374D-03  0.639663D-03 -0.117350D-02  0.521317D-03 -0.142878D-01
     14  0.724199D-03  0.145961D-02  0.415575D-02 -0.788417D-03 -0.255142D-02
     15 -0.648108D-03  0.360839D-04 -0.213804D-02  0.137733D-03  0.104733D-02
     16 -0.341603D-01 -0.266605D+00  0.995829D-01  0.490323D-01 -0.239113D-01
     17 -0.391784D-01  0.817278D-01 -0.733010D-01 -0.274037D-01 -0.437520D-02
     18 -0.614795D-01  0.640008D-01 -0.409974D-01 -0.639455D-01  0.244785D-02
     19 -0.337515D-01  0.831418D-02  0.378373D-02  0.331747D-01  0.223011D-02
     20 -0.204946D-01  0.189061D-02  0.278907D-03 -0.195550D-01 -0.213034D-03
     21 -0.174078D-01  0.331174D-02 -0.299454D-02 -0.243428D-01  0.160976D-02
               11            12            13            14            15 
     11 -0.302276D-01
     12  0.432990D-01  0.243677D-01
     13 -0.482154D-03  0.224167D-03  0.808783D-02
     14 -0.959548D-02 -0.551264D-02 -0.334836D-02  0.782167D-01
     15 -0.270081D-02 -0.128802D-01  0.161039D-02 -0.364917D-01  0.262888D-01
     16 -0.846444D-02  0.427288D-02  0.499719D-02  0.977995D-02 -0.549457D-02
     17  0.660798D-01 -0.545016D-01  0.425681D-02 -0.784385D-01  0.456222D-01
     18 -0.637547D-01  0.147868D-01 -0.267497D-02  0.485330D-01 -0.206333D-01
     19  0.198850D-02 -0.380764D-02  0.264262D-03 -0.332960D-02  0.177758D-02
     20  0.133503D-02  0.143039D-01  0.217179D-04  0.281113D-02 -0.277488D-02
     21  0.125391D-01 -0.284742D-01  0.104646D-02 -0.556138D-02  0.723880D-02
               16            17            18            19            20 
     16  0.614876D+00
     17  0.443627D-01  0.258631D+00
     18 -0.892243D-02  0.167730D+00  0.433184D+00
     19 -0.961484D-01 -0.126335D-01 -0.858788D-02  0.479453D+00
     20 -0.786693D-02 -0.535022D-01 -0.622153D-01  0.204622D+00  0.154326D+00
     21  0.344267D-01 -0.718710D-01 -0.276407D+00  0.926412D-01  0.143959D+00
               21 
     21  0.409157D+00
 Leave Link  716 at Wed Mar  6 17:51:08 2024, MaxMem=   104857600 cpu:               0.0 elap:               0.0
 (Enter /opt/g16/l123.exe)
 IRC-IRC-IRC-IRC-IRC-IRC-IRC-IRC-IRC-IRC-IRC-IRC-IRC-IRC-IRC-IRC-IRC-IRC
 Pt  3 Step number   1 out of a maximum of  10
 Using modified Bulirsch-Stoer corrector integration.
   Using distance weighted interpolants to fit PES.
 PreDWI: IReCr0= 2 IReCr1= 1 IReCr2= 1 IReCr3= 1
 Modified Bulirsch-Stoer Extrapolation Cycles:
    EPS =    0.000010000000000
    Cycle     1 NS=    48
      PEZero:  N= 2 I= 1 D=  1.63D-04 Err=  8.48D-06
    Cycle     2 NS=    64 Truncation Error =  0.000008482
 BS completed in    2 cycles and     112 integration steps.
 Maximum DWI energy   std dev =  0.000000217 at pt    15
 Maximum DWI gradient std dev =  0.005637884 at pt    16
 SUMMARY OF CORRECTOR INTEGRATION:
   Predictor End Point Energy =  -116.088898
   Old End Point Energy       =  -116.088898
   Corrected End Point Energy =  -116.088898
   Predictor End-Start Dist.  =     0.031360
   Old End-Start Dist.        =     0.031360
   New End-Start Dist.        =     0.031356
   New End-Old End Dist.      =     0.000171
 CORRECTOR INTEGRATION CONVERGENCE:
   Recorrection delta-x convergence threshold:    0.010000
   Delta-x Convergence Met
 Point Number:   3          Path Number:   1
                    CURRENT STRUCTURE
                Cartesian Coordinates (Ang):                
 ---------------------------------------------------------------------
 Center     Atomic                     Coordinates (Angstroms)
 Number     Number                        X           Y           Z
 ---------------------------------------------------------------------
      1          1                   -0.752565   -0.493601   -1.000310
      2          1                    0.839776    0.812106    0.934161
      3          1                   -0.978973    0.654156    0.947274
      4          1                    0.069998   -0.909778    1.351086
      5          1                    0.107776   -1.730750    1.764467
      6          6                   -0.024665    0.234698    0.626555
      7          8                    0.063492   -0.070989   -0.721887
 ---------------------------------------------------------------------
   CHANGE IN THE REACTION COORDINATE =    0.03136
   NET REACTION COORDINATE UP TO THIS POINT =    0.09407
  # OF POINTS ALONG THE PATH =   3
  # OF STEPS =   1

 Calculating another point on the path.
 Point Number  4 in FORWARD path direction.
 Using LQA Reaction Path Following.
   LQA: T_Est iteration completed in    3 iterations.
 IRC-IRC-IRC-IRC-IRC-IRC-IRC-IRC-IRC-IRC-IRC-IRC-IRC-IRC-IRC-IRC-IRC-IRC
 Leave Link  123 at Wed Mar  6 17:51:08 2024, MaxMem=   104857600 cpu:               0.0 elap:               0.0
 (Enter /opt/g16/l202.exe)
                          Input orientation:                          
 ---------------------------------------------------------------------
 Center     Atomic      Atomic             Coordinates (Angstroms)
 Number     Number       Type             X           Y           Z
 ---------------------------------------------------------------------
      1          1           0       -0.752750   -0.493374   -1.000158
      2          1           0        0.840594    0.811066    0.934564
      3          1           0       -0.979575    0.652664    0.947767
      4          1           0        0.071009   -0.923221    1.358432
      5          1           0        0.107727   -1.729464    1.763936
      6          6           0       -0.024770    0.236004    0.625652
      7          8           0        0.063508   -0.071058   -0.721704
 ---------------------------------------------------------------------
                    Distance matrix (angstroms):
                    1          2          3          4          5
     1  H    0.000000
     2  H    2.825502   0.000000
     3  H    2.271402   1.827096   0.000000
     4  H    2.535014   1.944138   1.937985   0.000000
     5  H    3.147786   2.771145   2.742789   0.903222   0.000000
     6  C    1.924892   1.083964   1.090420   1.374751   2.275150
     7  O    0.960294   2.031066   2.097363   2.247933   2.988424
                    6          7
     6  C    0.000000
     7  O    1.384720   0.000000
 Symmetry turned off by external request.
 Stoichiometry    CH5O(2)
 Framework group  C1[X(CH5O)]
 Deg. of freedom    15
 Full point group                 C1      NOp   1
 Rotational constants (GHZ):          60.9050599          21.8233468          18.8729428
 Leave Link  202 at Wed Mar  6 17:51:08 2024, MaxMem=   104857600 cpu:               0.0 elap:               0.0
 (Enter /opt/g16/l301.exe)
 Standard basis: STO-3G (5D, 7F)
 Ernie: Thresh=  0.10000D-02 Tol=  0.10000D-05 Strict=F.
    15 basis functions,    45 primitive gaussians,    15 cartesian basis functions
    10 alpha electrons        9 beta electrons
       nuclear repulsion energy        43.9517492878 Hartrees.
 IExCor=    0 DFT=F Ex=HF Corr=None ExCW=0 ScaHFX=  1.000000
 ScaDFX=  1.000000  1.000000  1.000000  1.000000 ScalE2=  1.000000  1.000000
 IRadAn=      5 IRanWt=     -1 IRanGd=            0 ICorTp=0 IEmpDi=  4
 NAtoms=    7 NActive=    7 NUniq=    7 SFac= 1.00D+00 NAtFMM=   60 NAOKFM=F Big=F
 Integral buffers will be    131072 words long.
 Raffenetti 2 integral format.
 Two-electron integral symmetry is turned off.
 Leave Link  301 at Wed Mar  6 17:51:08 2024, MaxMem=   104857600 cpu:               0.1 elap:               0.1
 (Enter /opt/g16/l402.exe)
 External calculation of energy, first and second derivatives.
 Running external command "python3 -u ../pes/h5co_pes.py R"
         input file       "/home/jh-li/scratch/g16/Gau-240053.EIn"
         output file      "/home/jh-li/scratch/g16/Gau-240053.EOu"
         message file     "/home/jh-li/scratch/g16/Gau-240053.EMs"
         fchk file        "/home/jh-li/scratch/g16/Gau-240053.EFC"
         mat. el file     "/home/jh-li/scratch/g16/Gau-240053.EUF"
 Recovered energy= -116.089170935     dipole=      0.000000000000      0.000000000000      0.000000000000
 NRF= 0 NRA=   0 NVA=   0 HaveQM=F NVQ=       0
 Convergence limit is  0.750E-04 MaxStp= 10000 StMxLn= 3.00D-04 StpMin= 1.00D-06.
 Convergence criteria             0.00011250 0.00007500 0.00045000 0.00030000
  Step  NS  ND Rises OKQ   Scale  Max. Force  RMS Force Max. Disp.  RMS Disp.     Energy   Flag
     1   0   0   F    T  1.00D+00 0.00000000 0.00000000 0.00000000 0.00000000 -116.0891709 ====
 Running external command "python3 -u ../pes/h5co_pes.py R"
         input file       "/home/jh-li/scratch/g16/Gau-240053.EIn"
         output file      "/home/jh-li/scratch/g16/Gau-240053.EOu"
         message file     "/home/jh-li/scratch/g16/Gau-240053.EMs"
         fchk file        "/home/jh-li/scratch/g16/Gau-240053.EFC"
         mat. el file     "/home/jh-li/scratch/g16/Gau-240053.EUF"
 Recovered energy= -116.089170935     dipole=      0.000000000000      0.000000000000      0.000000000000
 Energy=    -116.089171     NIter=   0.
 Dipole moment=       0.000000       0.000000       0.000000
 Leave Link  402 at Wed Mar  6 17:51:10 2024, MaxMem=   104857600 cpu:               0.0 elap:               1.9
 (Enter /opt/g16/l716.exe)
 Dipole        = 0.00000000D+00 0.00000000D+00 0.00000000D+00
 -------------------------------------------------------------------
 Center     Atomic                   Forces (Hartrees/Bohr)
 Number     Number              X              Y              Z
 -------------------------------------------------------------------
      1        1          -0.000112406    0.000141527    0.000099153
      2        1           0.000484822   -0.000604987    0.000235761
      3        1          -0.000358071   -0.000881547    0.000287274
      4        1           0.000600286   -0.007840476    0.004288805
      5        1          -0.000013578    0.000434409   -0.000146664
      6        6          -0.000765354    0.009427703   -0.006439349
      7        8           0.000162703   -0.000672978    0.001683210
 -------------------------------------------------------------------
 Cartesian Forces:  Max     0.009427703 RMS     0.003209879
 Force constants in Cartesian coordinates: 
                1             2             3             4             5 
      1  0.392964D+00
      2  0.196761D+00  0.106605D+00
      3  0.120405D+00  0.753192D-01  0.970893D-01
      4  0.391433D-02  0.873321D-03  0.167153D-02  0.242427D+00
      5  0.617377D-03  0.191621D-03 -0.208996D-02  0.129167D+00  0.117868D+00
      6 -0.403077D-03 -0.376397D-02 -0.581014D-02  0.617799D-01  0.535888D-01
      7  0.389539D-03 -0.796881D-04 -0.954154D-03 -0.137065D-01  0.142385D-01
      8  0.375319D-03 -0.966266D-03  0.457288D-03 -0.184103D-01  0.919801D-02
      9  0.258853D-02  0.219651D-02  0.422858D-02 -0.808225D-02  0.152690D-02
     10 -0.792230D-03  0.294221D-03 -0.708807D-03 -0.387341D-03 -0.103312D-01
     11 -0.168209D-02  0.139104D-02  0.123007D-02  0.596300D-02 -0.130797D-01
     12  0.217558D-02  0.891991D-03 -0.494671D-03 -0.110317D-02 -0.329656D-03
     13 -0.725741D-04 -0.367655D-04  0.239154D-03  0.432305D-03  0.785977D-03
     14  0.105594D-02 -0.338470D-03 -0.119601D-02 -0.318005D-02  0.264822D-02
     15 -0.510949D-03 -0.589726D-03  0.696835D-03  0.164872D-02 -0.623964D-03
     16  0.150263D-02 -0.101332D-01 -0.391190D-01 -0.235986D+00 -0.127682D+00
     17  0.458199D-02 -0.372047D-02 -0.204482D-01 -0.117380D+00 -0.114390D+00
     18  0.814064D-02 -0.190562D-02 -0.257547D-01 -0.548687D-01 -0.477923D-01
     19 -0.397901D+00 -0.187684D+00 -0.815427D-01  0.331171D-02 -0.680321D-02
     20 -0.201704D+00 -0.103162D+00 -0.532711D-01  0.296223D-02 -0.242747D-02
     21 -0.132389D+00 -0.721458D-01 -0.699577D-01 -0.104876D-02 -0.428355D-02
                6             7             8             9            10 
      6  0.802398D-01
      7  0.309686D-02  0.273728D+00
      8  0.444452D-02 -0.955206D-01  0.737888D-01
      9  0.369370D-02 -0.712052D-01  0.400194D-01  0.798603D-01
     10  0.496443D-02 -0.183543D-02  0.114208D-01 -0.643031D-02  0.372013D-01
     11  0.490647D-02 -0.291698D-02 -0.141117D-01  0.405267D-02  0.517333D-02
     12  0.175509D-02  0.943585D-03  0.146122D-02  0.643450D-03 -0.264352D-02
     13 -0.972678D-03  0.686629D-03 -0.114395D-02  0.514022D-03 -0.144760D-01
     14  0.919531D-03  0.132431D-02  0.390963D-02 -0.591338D-03 -0.206731D-02
     15 -0.700911D-03  0.107668D-03 -0.200636D-02  0.877044D-04  0.795629D-03
     16 -0.345843D-01 -0.267489D+00  0.994691D-01  0.494826D-01 -0.216941D-01
     17 -0.396134D-01  0.809093D-01 -0.720489D-01 -0.276495D-01 -0.430582D-02
     18 -0.616052D-01  0.643163D-01 -0.411592D-01 -0.640840D-01  0.241148D-02
     19 -0.338819D-01  0.822920D-02  0.381241D-02  0.331302D-01  0.198978D-02
     20 -0.204817D-01  0.204765D-02  0.234291D-03 -0.195547D-01 -0.186051D-03
     21 -0.175721D-01  0.369762D-02 -0.321917D-02 -0.244253D-01  0.161162D-02
               11            12            13            14            15 
     11 -0.206928D-01
     12  0.369524D-01  0.252348D-01
     13  0.523260D-04 -0.770355D-04  0.825894D-02
     14 -0.216834D-01  0.908954D-03 -0.383412D-02  0.897871D-01
     15  0.332283D-02 -0.163079D-01  0.185370D-02 -0.422351D-01  0.293295D-01
     16 -0.883331D-02  0.449777D-02  0.489127D-02  0.100144D-01 -0.563729D-02
     17  0.676329D-01 -0.537402D-01  0.418846D-02 -0.775566D-01  0.451267D-01
     18 -0.618856D-01  0.155125D-01 -0.254409D-02  0.469069D-01 -0.199351D-01
     19  0.224216D-02 -0.379293D-02  0.274120D-03 -0.331158D-02  0.174211D-02
     20  0.589731D-03  0.138367D-01 -0.106141D-04  0.320845D-02 -0.298290D-02
     21  0.114153D-01 -0.263309D-01  0.986685D-03 -0.470083D-02  0.682368D-02
               16            17            18            19            20 
     16  0.614745D+00
     17  0.449775D-01  0.252853D+00
     18 -0.916953D-02  0.168897D+00  0.433626D+00
     19 -0.959686D-01 -0.129660D-01 -0.828624D-02  0.480049D+00
     20 -0.780846D-02 -0.528034D-01 -0.630611D-01  0.204704D+00  0.154361D+00
     21  0.345306D-01 -0.725627D-01 -0.277731D+00  0.926240D-01  0.145502D+00
               21 
     21  0.409156D+00
 Leave Link  716 at Wed Mar  6 17:51:10 2024, MaxMem=   104857600 cpu:               0.0 elap:               0.0
 (Enter /opt/g16/l123.exe)
 IRC-IRC-IRC-IRC-IRC-IRC-IRC-IRC-IRC-IRC-IRC-IRC-IRC-IRC-IRC-IRC-IRC-IRC
 Pt  4 Step number   1 out of a maximum of  10
 Using modified Bulirsch-Stoer corrector integration.
   Using distance weighted interpolants to fit PES.
 PreDWI: IReCr0= 2 IReCr1= 1 IReCr2= 1 IReCr3= 1
 Modified Bulirsch-Stoer Extrapolation Cycles:
    EPS =    0.000010000000000
    Cycle     1 NS=    48
      PEZero:  N= 2 I= 1 D=  1.63D-04 Err=  9.98D-06
    Cycle     2 NS=    64 Truncation Error =  0.000009976
 BS completed in    2 cycles and     112 integration steps.
 Maximum DWI energy   std dev =  0.000000223 at pt    14
 Maximum DWI gradient std dev =  0.004552533 at pt    17
 SUMMARY OF CORRECTOR INTEGRATION:
   Predictor End Point Energy =  -116.089171
   Old End Point Energy       =  -116.089171
   Corrected End Point Energy =  -116.089171
   Predictor End-Start Dist.  =     0.031360
   Old End-Start Dist.        =     0.031360
   New End-Start Dist.        =     0.031355
   New End-Old End Dist.      =     0.000153
 CORRECTOR INTEGRATION CONVERGENCE:
   Recorrection delta-x convergence threshold:    0.010000
   Delta-x Convergence Met
 Point Number:   4          Path Number:   1
                    CURRENT STRUCTURE
                Cartesian Coordinates (Ang):                
 ---------------------------------------------------------------------
 Center     Atomic                     Coordinates (Angstroms)
 Number     Number                        X           Y           Z
 ---------------------------------------------------------------------
      1          1                   -0.752751   -0.493372   -1.000156
      2          1                    0.840596    0.811065    0.934564
      3          1                   -0.979576    0.652661    0.947768
      4          1                    0.071011   -0.923216    1.358431
      5          1                    0.107730   -1.729532    1.763971
      6          6                   -0.024771    0.236010    0.625649
      7          8                    0.063508   -0.071058   -0.721704
 ---------------------------------------------------------------------
   CHANGE IN THE REACTION COORDINATE =    0.03136
   NET REACTION COORDINATE UP TO THIS POINT =    0.12543
  # OF POINTS ALONG THE PATH =   4
  # OF STEPS =   1

 Calculating another point on the path.
 Point Number  5 in FORWARD path direction.
 Using LQA Reaction Path Following.
   LQA: T_Est iteration completed in    3 iterations.
 IRC-IRC-IRC-IRC-IRC-IRC-IRC-IRC-IRC-IRC-IRC-IRC-IRC-IRC-IRC-IRC-IRC-IRC
 Leave Link  123 at Wed Mar  6 17:51:10 2024, MaxMem=   104857600 cpu:               0.0 elap:               0.0
 (Enter /opt/g16/l202.exe)
                          Input orientation:                          
 ---------------------------------------------------------------------
 Center     Atomic      Atomic             Coordinates (Angstroms)
 Number     Number       Type             X           Y           Z
 ---------------------------------------------------------------------
      1          1           0       -0.752951   -0.493121   -0.999978
      2          1           0        0.841427    0.810043    0.934968
      3          1           0       -0.980198    0.651154    0.948256
      4          1           0        0.072046   -0.936612    1.365760
      5          1           0        0.107722   -1.729093    1.763876
      6          6           0       -0.024883    0.237390    0.624713
      7          8           0        0.063527   -0.071133   -0.721525
 ---------------------------------------------------------------------
                    Distance matrix (angstroms):
                    1          2          3          4          5
     1  H    0.000000
     2  H    2.825649   0.000000
     3  H    2.270819   1.828590   0.000000
     4  H    2.544410   1.956613   1.950007   0.000000
     5  H    3.147582   2.769950   2.741237   0.887578   0.000000
     6  C    1.924409   1.083827   1.090187   1.391699   2.276473
     7  O    0.960336   2.031149   2.097434   2.259621   2.987976
                    6          7
     6  C    0.000000
     7  O    1.383965   0.000000
 Symmetry turned off by external request.
 Stoichiometry    CH5O(2)
 Framework group  C1[X(CH5O)]
 Deg. of freedom    15
 Full point group                 C1      NOp   1
 Rotational constants (GHZ):          60.6750036          21.8177775          18.8511749
 Leave Link  202 at Wed Mar  6 17:51:10 2024, MaxMem=   104857600 cpu:               0.0 elap:               0.0
 (Enter /opt/g16/l301.exe)
 Standard basis: STO-3G (5D, 7F)
 Ernie: Thresh=  0.10000D-02 Tol=  0.10000D-05 Strict=F.
    15 basis functions,    45 primitive gaussians,    15 cartesian basis functions
    10 alpha electrons        9 beta electrons
       nuclear repulsion energy        43.9305025891 Hartrees.
 IExCor=    0 DFT=F Ex=HF Corr=None ExCW=0 ScaHFX=  1.000000
 ScaDFX=  1.000000  1.000000  1.000000  1.000000 ScalE2=  1.000000  1.000000
 IRadAn=      5 IRanWt=     -1 IRanGd=            0 ICorTp=0 IEmpDi=  4
 NAtoms=    7 NActive=    7 NUniq=    7 SFac= 1.00D+00 NAtFMM=   60 NAOKFM=F Big=F
 Integral buffers will be    131072 words long.
 Raffenetti 2 integral format.
 Two-electron integral symmetry is turned off.
 Leave Link  301 at Wed Mar  6 17:51:10 2024, MaxMem=   104857600 cpu:               0.1 elap:               0.1
 (Enter /opt/g16/l402.exe)
 External calculation of energy, first and second derivatives.
 Running external command "python3 -u ../pes/h5co_pes.py R"
         input file       "/home/jh-li/scratch/g16/Gau-240053.EIn"
         output file      "/home/jh-li/scratch/g16/Gau-240053.EOu"
         message file     "/home/jh-li/scratch/g16/Gau-240053.EMs"
         fchk file        "/home/jh-li/scratch/g16/Gau-240053.EFC"
         mat. el file     "/home/jh-li/scratch/g16/Gau-240053.EUF"
 Recovered energy= -116.089498651     dipole=      0.000000000000      0.000000000000      0.000000000000
 NRF= 0 NRA=   0 NVA=   0 HaveQM=F NVQ=       0
 Convergence limit is  0.750E-04 MaxStp= 10000 StMxLn= 3.00D-04 StpMin= 1.00D-06.
 Convergence criteria             0.00011250 0.00007500 0.00045000 0.00030000
  Step  NS  ND Rises OKQ   Scale  Max. Force  RMS Force Max. Disp.  RMS Disp.     Energy   Flag
     1   0   0   F    T  1.00D+00 0.00000000 0.00000000 0.00000000 0.00000000 -116.0894987 ====
 Running external command "python3 -u ../pes/h5co_pes.py R"
         input file       "/home/jh-li/scratch/g16/Gau-240053.EIn"
         output file      "/home/jh-li/scratch/g16/Gau-240053.EOu"
         message file     "/home/jh-li/scratch/g16/Gau-240053.EMs"
         fchk file        "/home/jh-li/scratch/g16/Gau-240053.EFC"
         mat. el file     "/home/jh-li/scratch/g16/Gau-240053.EUF"
 Recovered energy= -116.089498651     dipole=      0.000000000000      0.000000000000      0.000000000000
 Energy=    -116.089499     NIter=   0.
 Dipole moment=       0.000000       0.000000       0.000000
 Leave Link  402 at Wed Mar  6 17:51:12 2024, MaxMem=   104857600 cpu:               0.0 elap:               1.9
 (Enter /opt/g16/l716.exe)
 Dipole        = 0.00000000D+00 0.00000000D+00 0.00000000D+00
 -------------------------------------------------------------------
 Center     Atomic                   Forces (Hartrees/Bohr)
 Number     Number              X              Y              Z
 -------------------------------------------------------------------
      1        1          -0.000141410    0.000183168    0.000133591
      2        1           0.000571026   -0.000690577    0.000275217
      3        1          -0.000430511   -0.001035241    0.000331695
      4        1           0.000712192   -0.009054137    0.004959886
      5        1           0.000013589   -0.000093150    0.000136887
      6        6          -0.000943861    0.011546278   -0.007755006
      7        8           0.000217304   -0.000851189    0.001925604
 -------------------------------------------------------------------
 Cartesian Forces:  Max     0.011546278 RMS     0.003831306
 Force constants in Cartesian coordinates: 
                1             2             3             4             5 
      1  0.393450D+00
      2  0.196773D+00  0.106591D+00
      3  0.120520D+00  0.753265D-01  0.970938D-01
      4  0.402622D-02  0.938652D-03  0.177087D-02  0.243367D+00
      5  0.607698D-03  0.230301D-03 -0.210602D-02  0.128990D+00  0.116402D+00
      6 -0.312953D-03 -0.367445D-02 -0.565680D-02  0.623393D-01  0.541694D-01
      7  0.284429D-03 -0.156001D-03 -0.114019D-02 -0.135776D-01  0.142480D-01
      8  0.450533D-03 -0.983174D-03  0.526906D-03 -0.184329D-01  0.900225D-02
      9  0.271382D-02  0.233507D-02  0.438803D-02 -0.818132D-02  0.145304D-02
     10 -0.757886D-03  0.281260D-03 -0.717900D-03 -0.440591D-03 -0.974085D-02
     11 -0.160146D-02  0.160466D-02  0.157751D-02  0.579160D-02 -0.122309D-01
     12  0.201457D-02  0.684118D-03 -0.639922D-03 -0.107984D-02 -0.408820D-03
     13 -0.310026D-04 -0.166252D-04  0.256703D-03  0.455187D-03  0.783635D-03
     14  0.798827D-03 -0.613117D-03 -0.152241D-02 -0.302475D-02  0.239239D-02
     15 -0.333459D-03 -0.428865D-03  0.910764D-03  0.157751D-02 -0.487305D-03
     16  0.133759D-02 -0.102098D-01 -0.390804D-01 -0.237084D+00 -0.128002D+00
     17  0.481602D-02 -0.354109D-02 -0.204957D-01 -0.117078D+00 -0.113168D+00
     18  0.796965D-02 -0.198041D-02 -0.259919D-01 -0.551373D-01 -0.480758D-01
     19 -0.398304D+00 -0.187615D+00 -0.816182D-01  0.326017D-02 -0.689303D-02
     20 -0.201839D+00 -0.103289D+00 -0.533053D-01  0.281076D-02 -0.262012D-02
     21 -0.132565D+00 -0.722593D-01 -0.701062D-01 -0.129206D-02 -0.454816D-02
                6             7             8             9            10 
      6  0.804428D-01
      7  0.331031D-02  0.274495D+00
      8  0.435845D-02 -0.947889D-01  0.723904D-01
      9  0.374265D-02 -0.719351D-01  0.403561D-01  0.799915D-01
     10  0.468357D-02 -0.171257D-02  0.107227D-01 -0.611900D-02  0.351505D-01
     11  0.456769D-02 -0.277234D-02 -0.134493D-01  0.371742D-02  0.459484D-02
     12  0.165435D-02  0.874813D-03  0.137422D-02  0.541898D-03 -0.231012D-02
     13 -0.990438D-03  0.731549D-03 -0.110852D-02  0.505592D-03 -0.144244D-01
     14  0.108315D-02  0.116908D-02  0.365607D-02 -0.418080D-03 -0.152553D-02
     15 -0.734290D-03  0.187432D-03 -0.187361D-02  0.525247D-04  0.515743D-03
     16 -0.350368D-01 -0.268369D+00  0.993170D-01  0.499387D-01 -0.195683D-01
     17 -0.400319D-01  0.800974D-01 -0.707978D-01 -0.278898D-01 -0.417127D-02
     18 -0.616982D-01  0.646293D-01 -0.412945D-01 -0.642000D-01  0.234230D-02
     19 -0.339937D-01  0.815187D-02  0.384279D-02  0.330748D-01  0.175924D-02
     20 -0.204719D-01  0.220525D-02  0.185313D-03 -0.195536D-01 -0.162905D-03
     21 -0.177503D-01  0.407627D-02 -0.344981D-02 -0.245121D-01  0.160590D-02
               11            12            13            14            15 
     11 -0.914099D-02
     12  0.294722D-01  0.265695D-01
     13  0.630259D-03 -0.398506D-03  0.822176D-02
     14 -0.347320D-01  0.792431D-02 -0.434070D-02  0.101930D+00
     15  0.994784D-02 -0.197814D-01  0.210762D-02 -0.483578D-01  0.323457D-01
     16 -0.907989D-02  0.465077D-02  0.475814D-02  0.101887D-01 -0.574876D-02
     17  0.681066D-01 -0.524339D-01  0.409505D-02 -0.762485D-01  0.443902D-01
     18 -0.596359D-01  0.159730D-01 -0.241036D-02  0.451950D-01 -0.192100D-01
     19  0.243556D-02 -0.375151D-02  0.283380D-03 -0.326412D-02  0.169350D-02
     20 -0.115870D-03  0.133716D-01 -0.417913D-04  0.359116D-02 -0.317893D-02
     21  0.103466D-01 -0.243048D-01  0.929105D-03 -0.389108D-02  0.641039D-02
               16            17            18            19            20 
     16  0.614686D+00
     17  0.455264D-01  0.247722D+00
     18 -0.936052D-02  0.169695D+00  0.434173D+00
     19 -0.957590D-01 -0.132804D-01 -0.803291D-02  0.480594D+00
     20 -0.773613D-02 -0.521045D-01 -0.639068D-01  0.204768D+00  0.154353D+00
     21  0.346380D-01 -0.732248D-01 -0.279018D+00  0.926204D-01  0.147033D+00
               21 
     21  0.409244D+00
 Leave Link  716 at Wed Mar  6 17:51:12 2024, MaxMem=   104857600 cpu:               0.0 elap:               0.0
 (Enter /opt/g16/l123.exe)
 IRC-IRC-IRC-IRC-IRC-IRC-IRC-IRC-IRC-IRC-IRC-IRC-IRC-IRC-IRC-IRC-IRC-IRC
 Pt  5 Step number   1 out of a maximum of  10
 Using modified Bulirsch-Stoer corrector integration.
   Using distance weighted interpolants to fit PES.
 PreDWI: IReCr0= 2 IReCr1= 1 IReCr2= 1 IReCr3= 1
 Modified Bulirsch-Stoer Extrapolation Cycles:
    EPS =    0.000010000000000
    Cycle     1 NS=    48
      PEZero:  N= 2 I= 1 D=  1.63D-04 Err=  1.11D-05
    Cycle     2 NS=    64 Truncation Error =  0.000011142
      PEZero:  N= 3 I= 2 D=  1.63D-04 Err=  7.42D-06
      PEZero:  N= 3 I= 1 D=  3.27D-04 Err=  1.67D-08
    Cycle     3 NS=    96 Truncation Error =  0.000000017
 BS completed in    3 cycles and     208 integration steps.
 Maximum DWI energy   std dev =  0.000000211 at pt    20
 Maximum DWI gradient std dev =  0.003984612 at pt    25
 SUMMARY OF CORRECTOR INTEGRATION:
   Predictor End Point Energy =  -116.089499
   Old End Point Energy       =  -116.089499
   Corrected End Point Energy =  -116.089499
   Predictor End-Start Dist.  =     0.031359
   Old End-Start Dist.        =     0.031359
   New End-Start Dist.        =     0.031354
   New End-Old End Dist.      =     0.000143
 CORRECTOR INTEGRATION CONVERGENCE:
   Recorrection delta-x convergence threshold:    0.010000
   Delta-x Convergence Met
 Point Number:   5          Path Number:   1
                    CURRENT STRUCTURE
                Cartesian Coordinates (Ang):                
 ---------------------------------------------------------------------
 Center     Atomic                     Coordinates (Angstroms)
 Number     Number                        X           Y           Z
 ---------------------------------------------------------------------
      1          1                   -0.752952   -0.493119   -0.999976
      2          1                    0.841429    0.810042    0.934968
      3          1                   -0.980199    0.651151    0.948257
      4          1                    0.072047   -0.936603    1.365757
      5          1                    0.107725   -1.729156    1.763909
      6          6                   -0.024883    0.237395    0.624711
      7          8                    0.063527   -0.071133   -0.721525
 ---------------------------------------------------------------------
   CHANGE IN THE REACTION COORDINATE =    0.03135
   NET REACTION COORDINATE UP TO THIS POINT =    0.15678
  # OF POINTS ALONG THE PATH =   5
  # OF STEPS =   1

 Calculating another point on the path.
 Point Number  6 in FORWARD path direction.
 Using LQA Reaction Path Following.
   LQA: T_Est iteration completed in    3 iterations.
 IRC-IRC-IRC-IRC-IRC-IRC-IRC-IRC-IRC-IRC-IRC-IRC-IRC-IRC-IRC-IRC-IRC-IRC
 Leave Link  123 at Wed Mar  6 17:51:12 2024, MaxMem=   104857600 cpu:               0.0 elap:               0.0
 (Enter /opt/g16/l202.exe)
                          Input orientation:                          
 ---------------------------------------------------------------------
 Center     Atomic      Atomic             Coordinates (Angstroms)
 Number     Number       Type             X           Y           Z
 ---------------------------------------------------------------------
      1          1           0       -0.753169   -0.492837   -0.999769
[...]
 Convergence criteria             0.00011250 0.00007500 0.00045000 0.00030000
  Step  NS  ND Rises OKQ   Scale  Max. Force  RMS Force Max. Disp.  RMS Disp.     Energy   Flag
     1   0   0   F    T  1.00D+00 0.00000000 0.00000000 0.00000000 0.00000000 -116.1038262 ====
 Running external command "python3 -u ../pes/h5co_pes.py R"
         input file       "/home/jh-li/scratch/g16/Gau-240053.EIn"
         output file      "/home/jh-li/scratch/g16/Gau-240053.EOu"
         message file     "/home/jh-li/scratch/g16/Gau-240053.EMs"
         fchk file        "/home/jh-li/scratch/g16/Gau-240053.EFC"
         mat. el file     "/home/jh-li/scratch/g16/Gau-240053.EUF"
 Recovered energy= -116.103826205     dipole=      0.000000000000      0.000000000000      0.000000000000
 Energy=    -116.103826     NIter=   0.
 Dipole moment=       0.000000       0.000000       0.000000
 Leave Link  402 at Wed Mar  6 17:57:37 2024, MaxMem=   104857600 cpu:               0.0 elap:               1.9
 (Enter /opt/g16/l716.exe)
 Dipole        = 0.00000000D+00 0.00000000D+00 0.00000000D+00
 -------------------------------------------------------------------
 Center     Atomic                   Forces (Hartrees/Bohr)
 Number     Number              X              Y              Z
 -------------------------------------------------------------------
      1        1           0.000016212   -0.000018783    0.000012823
      2        1          -0.000005025    0.000020180   -0.000013159
      3        1          -0.000002966   -0.000000038   -0.000001336
      4        1           0.000016125    0.000016396    0.000002888
      5        1          -0.000015152   -0.000128254    0.000039742
      6        6           0.000023130    0.000112612   -0.000032695
      7        8          -0.000033247   -0.000001327   -0.000013400
 -------------------------------------------------------------------
 Cartesian Forces:  Max     0.000128254 RMS     0.000041268
 Force constants in Cartesian coordinates: 
                1             2             3             4             5 
      1  0.325763D+00
      2  0.242894D+00  0.188913D+00
      3  0.820358D-01  0.779969D-01  0.794941D-01
      4  0.248703D-02  0.200608D-02  0.838219D-03  0.226909D+00
      5  0.143099D-02  0.393134D-03 -0.160156D-02  0.138922D+00  0.157339D+00
      6  0.199468D-03 -0.231091D-02 -0.730266D-02  0.384305D-01  0.334525D-01
      7  0.845321D-03 -0.527881D-03  0.837712D-03 -0.199729D-01  0.149123D-01
      8  0.903591D-03 -0.122061D-03 -0.187849D-03 -0.188219D-01  0.104649D-01
      9  0.124638D-02  0.531330D-03  0.144044D-02 -0.433035D-02  0.259323D-02
     10  0.269716D-03  0.121541D-02 -0.538850D-03  0.309585D-02 -0.221633D-01
     11 -0.530986D-03  0.120222D-02  0.746839D-03  0.344547D-02 -0.157518D-01
     12  0.122743D-02  0.126940D-02 -0.970695D-04  0.999219D-03 -0.363542D-02
     13 -0.295611D-04 -0.219081D-04 -0.190703D-04 -0.554751D-04 -0.383687D-04
     14  0.963908D-04 -0.126220D-04  0.315560D-04  0.156253D-03 -0.139791D-03
     15 -0.105439D-03 -0.620999D-04 -0.393358D-04 -0.671843D-04  0.564308D-04
     16 -0.215534D-03 -0.104103D-01 -0.358155D-01 -0.216287D+00 -0.125831D+00
     17  0.414954D-02 -0.642456D-02 -0.278532D-01 -0.127411D+00 -0.148169D+00
     18  0.888236D-02  0.210638D-02 -0.146400D-01 -0.354523D-01 -0.245551D-01
     19 -0.329116D+00 -0.235161D+00 -0.473421D-01  0.383247D-02 -0.723597D-02
     20 -0.248941D+00 -0.183947D+00 -0.491358D-01  0.169867D-02 -0.413178D-02
     21 -0.934901D-01 -0.795380D-01 -0.588648D-01 -0.418102D-03 -0.631297D-02
                6             7             8             9            10 
      6  0.688581D-01
      7  0.278987D-02  0.255626D+00
      8  0.331519D-02 -0.117229D+00  0.114979D+00
      9  0.222460D-02 -0.439557D-01  0.276450D-01  0.695136D-01
     10  0.141125D-01 -0.210448D-02  0.244102D-01 -0.149007D-01  0.491534D-01
     11  0.896679D-02 -0.121813D-02 -0.119718D-01  0.704043D-02 -0.176054D-01
     12  0.526115D-02  0.655817D-03 -0.323677D-02  0.535036D-02  0.111862D-01
     13 -0.452913D-04 -0.322140D-04  0.391795D-04  0.365974D-04 -0.101460D-05
     14 -0.607162D-04 -0.129589D-03 -0.702067D-04  0.103321D-03 -0.160966D-04
     15  0.634192D-04  0.127608D-03 -0.359135D-04 -0.395628D-04  0.273645D-05
     16 -0.249217D-01 -0.241229D+00  0.105631D+00  0.310694D-01 -0.536565D-01
     17 -0.161853D-01  0.104288D+00 -0.112100D+00 -0.162736D-01  0.169456D-01
     18 -0.515763D-01  0.372361D-01 -0.194413D-01 -0.551462D-01 -0.114023D-01
     19 -0.305669D-01  0.687348D-02  0.507121D-02  0.308362D-01  0.324203D-02
     20 -0.271792D-01 -0.926112D-04 -0.117774D-02 -0.216421D-01 -0.278426D-02
     21 -0.175310D-01  0.230918D-02 -0.806020D-02 -0.233446D-01  0.154106D-02
               11            12            13            14            15 
     11  0.242049D+00
     12 -0.128556D+00  0.151658D+00
     13  0.145100D-04  0.752854D-05 -0.187135D-04
     14 -0.798106D-03  0.584900D-03 -0.965386D-05  0.629605D-03
     15  0.343724D-03 -0.225331D-03 -0.178581D-05 -0.285665D-03  0.110356D-03
     16  0.157357D-01 -0.121238D-01  0.889889D-04 -0.104613D-03  0.475975D-05
     17 -0.231639D+00  0.113549D+00 -0.318587D-04  0.342819D-03 -0.855322D-04
     18  0.119733D+00 -0.123836D+00 -0.102701D-03 -0.133470D-03 -0.110283D-03
     19  0.158233D-03 -0.195280D-02  0.476290D-04  0.733432D-05  0.391947D-04
     20  0.169126D-01  0.200322D-01  0.480951D-04  0.479556D-04  0.690550D-04
     21 -0.827280D-02 -0.381121D-01  0.124666D-03 -0.239659D-03  0.240683D-03
               16            17            18            19            20 
     16  0.592272D+00
     17  0.200836D-01  0.579977D+00
     18  0.771885D-02 -0.235252D-01  0.474036D+00
     19 -0.809871D-01 -0.180237D-01 -0.688071D-02  0.396104D+00
     20 -0.510370D-02 -0.819993D-01 -0.541844D-01  0.255179D+00  0.254295D+00
     21  0.340736D-01 -0.296233D-01 -0.228739D+00  0.558645D-01  0.132046D+00
               21 
     21  0.366377D+00
 Leave Link  716 at Wed Mar  6 17:57:37 2024, MaxMem=   104857600 cpu:               0.0 elap:               0.0
 (Enter /opt/g16/l123.exe)
 IRC-IRC-IRC-IRC-IRC-IRC-IRC-IRC-IRC-IRC-IRC-IRC-IRC-IRC-IRC-IRC-IRC-IRC
 Pt189 Step number   1 out of a maximum of  10
 Using modified Bulirsch-Stoer corrector integration.
   Using distance weighted interpolants to fit PES.
 PreDWI: IReCr0= 2 IReCr1= 1 IReCr2= 1 IReCr3= 1
 Modified Bulirsch-Stoer Extrapolation Cycles:
    EPS =    0.000010000000000
    Cycle     1 NS=    48
      PEZero:  N= 2 I= 1 D=  1.63D-04 Err=  3.09D-04
    Cycle     2 NS=    64 Truncation Error =  0.000309020
      PEZero:  N= 3 I= 2 D=  1.63D-04 Err=  3.07D-06
      PEZero:  N= 3 I= 1 D=  3.27D-04 Err=  3.09D-04
    Cycle     3 NS=    96 Truncation Error =  0.000003073
 BS completed in    3 cycles and     208 integration steps.
 Maximum DWI energy   std dev =  0.000000051 at pt    24
 Maximum DWI gradient std dev =  0.006602411 at pt    47
 SUMMARY OF CORRECTOR INTEGRATION:
   Predictor End Point Energy =  -116.103826
   Old End Point Energy       =  -116.103826
   Corrected End Point Energy =  -116.103826
   Predictor End-Start Dist.  =     0.031362
   Old End-Start Dist.        =     0.031362
   New End-Start Dist.        =     0.031360
   New End-Old End Dist.      =     0.000059
 CORRECTOR INTEGRATION CONVERGENCE:
   Recorrection delta-x convergence threshold:    0.010000
   Delta-x Convergence Met
 Point Number:  89          Path Number:   2
                    CURRENT STRUCTURE
                Cartesian Coordinates (Ang):                
 ---------------------------------------------------------------------
 Center     Atomic                     Coordinates (Angstroms)
 Number     Number                        X           Y           Z
 ---------------------------------------------------------------------
      1          1                   -0.686356   -0.627495   -0.954863
      2          1                    0.813829    0.942979    0.839288
      3          1                   -0.950877    0.814418    0.860900
      4          1                    0.054863   -0.595694    1.275077
      5          1                    0.134526   -2.913023    2.303520
      6          6                   -0.024115    0.283466    0.629392
      7          8                    0.058001   -0.062748   -0.744965
 ---------------------------------------------------------------------
   CHANGE IN THE REACTION COORDINATE =    0.03136
   NET REACTION COORDINATE UP TO THIS POINT =    2.79107
  # OF POINTS ALONG THE PATH = 189
  # OF STEPS =   1

 PES minimum detected on this side of the pathway.
    Magnitude of the gradient =      0.0001458
 Calculation of REVERSE path complete.
 Reaction path calculation complete.
 
 Energies reported relative to the TS energy of        -116.088516
 --------------------------------------------------------------------------
    Summary of reaction path following
 --------------------------------------------------------------------------
                        Energy    RxCoord
   1                   -0.01531  -2.79107
   2                   -0.01531  -2.75971
   3                   -0.01530  -2.72835
   4                   -0.01529  -2.69699
   5                   -0.01529  -2.66563
   6                   -0.01528  -2.63427
   7                   -0.01527  -2.60290
   8                   -0.01526  -2.57154
   9                   -0.01524  -2.54018
  10                   -0.01523  -2.50881
  11                   -0.01522  -2.47745
  12                   -0.01520  -2.44609
  13                   -0.01518  -2.41472
  14                   -0.01516  -2.38336
  15                   -0.01514  -2.35200
  16                   -0.01512  -2.32063
  17                   -0.01510  -2.28927
  18                   -0.01507  -2.25791
  19                   -0.01504  -2.22654
  20                   -0.01501  -2.19518
  21                   -0.01498  -2.16382
  22                   -0.01494  -2.13246
  23                   -0.01491  -2.10109
  24                   -0.01487  -2.06973
  25                   -0.01482  -2.03837
  26                   -0.01478  -2.00700
  27                   -0.01473  -1.97564
  28                   -0.01468  -1.94428
  29                   -0.01463  -1.91291
  30                   -0.01457  -1.88155
  31                   -0.01451  -1.85019
  32                   -0.01444  -1.81882
  33                   -0.01438  -1.78746
  34                   -0.01430  -1.75610
  35                   -0.01423  -1.72473
  36                   -0.01415  -1.69337
  37                   -0.01406  -1.66201
  38                   -0.01397  -1.63065
  39                   -0.01388  -1.59928
  40                   -0.01378  -1.56792
  41                   -0.01368  -1.53656
  42                   -0.01357  -1.50519
  43                   -0.01345  -1.47383
  44                   -0.01333  -1.44247
  45                   -0.01321  -1.41110
  46                   -0.01307  -1.37974
  47                   -0.01294  -1.34838
  48                   -0.01279  -1.31702
  49                   -0.01264  -1.28565
  50                   -0.01248  -1.25429
  51                   -0.01231  -1.22293
  52                   -0.01214  -1.19156
  53                   -0.01196  -1.16020
  54                   -0.01177  -1.12884
  55                   -0.01158  -1.09748
  56                   -0.01138  -1.06611
  57                   -0.01116  -1.03475
  58                   -0.01094  -1.00339
  59                   -0.01071  -0.97202
  60                   -0.01048  -0.94066
  61                   -0.01023  -0.90930
  62                   -0.00997  -0.87794
  63                   -0.00971  -0.84657
  64                   -0.00943  -0.81521
  65                   -0.00915  -0.78385
  66                   -0.00886  -0.75249
  67                   -0.00855  -0.72112
  68                   -0.00824  -0.68976
  69                   -0.00791  -0.65840
  70                   -0.00758  -0.62704
  71                   -0.00723  -0.59568
  72                   -0.00688  -0.56432
  73                   -0.00651  -0.53296
  74                   -0.00613  -0.50160
  75                   -0.00574  -0.47024
  76                   -0.00534  -0.43890
  77                   -0.00491  -0.40756
  78                   -0.00447  -0.37623
  79                   -0.00401  -0.34489
  80                   -0.00352  -0.31356
  81                   -0.00302  -0.28221
  82                   -0.00250  -0.25086
  83                   -0.00200  -0.21951
  84                   -0.00152  -0.18815
  85                   -0.00109  -0.15679
  86                   -0.00071  -0.12543
  87                   -0.00040  -0.09407
  88                   -0.00018  -0.06272
  89                   -0.00004  -0.03136
  90                    0.00000   0.00000
  91                   -0.00005   0.03136
  92                   -0.00018   0.06271
  93                   -0.00038   0.09407
  94                   -0.00065   0.12543
  95                   -0.00098   0.15678
  96                   -0.00135   0.18813
  97                   -0.00176   0.21948
  98                   -0.00219   0.25084
  99                   -0.00264   0.28219
 100                   -0.00310   0.31354
 101                   -0.00357   0.34490
 102                   -0.00405   0.37626
 103                   -0.00454   0.40762
 104                   -0.00504   0.43898
 105                   -0.00553   0.47034
 106                   -0.00603   0.50170
 107                   -0.00652   0.53307
 108                   -0.00702   0.56443
 109                   -0.00751   0.59579
 110                   -0.00800   0.62715
 111                   -0.00849   0.65852
 112                   -0.00897   0.68988
 113                   -0.00945   0.72124
 114                   -0.00992   0.75260
 115                   -0.01039   0.78397
 116                   -0.01084   0.81533
 117                   -0.01130   0.84669
 118                   -0.01174   0.87805
 119                   -0.01218   0.90942
 120                   -0.01261   0.94078
 121                   -0.01303   0.97214
 122                   -0.01344   1.00350
 123                   -0.01385   1.03487
 124                   -0.01424   1.06623
 125                   -0.01463   1.09759
 126                   -0.01501   1.12896
 127                   -0.01538   1.16032
 128                   -0.01574   1.19168
 129                   -0.01609   1.22304
 130                   -0.01644   1.25441
 131                   -0.01677   1.28577
 132                   -0.01710   1.31713
 133                   -0.01741   1.34850
 134                   -0.01772   1.37986
 135                   -0.01802   1.41122
 136                   -0.01832   1.44258
 137                   -0.01860   1.47395
 138                   -0.01888   1.50531
 139                   -0.01914   1.53667
 140                   -0.01940   1.56804
 141                   -0.01965   1.59940
 142                   -0.01990   1.63076
 143                   -0.02013   1.66212
 144                   -0.02036   1.69349
 145                   -0.02058   1.72485
 146                   -0.02080   1.75621
 147                   -0.02100   1.78758
 148                   -0.02120   1.81894
 149                   -0.02139   1.85030
 150                   -0.02158   1.88166
 151                   -0.02176   1.91303
 152                   -0.02193   1.94439
 153                   -0.02210   1.97575
 154                   -0.02226   2.00712
 155                   -0.02241   2.03848
 156                   -0.02256   2.06984
 157                   -0.02270   2.10121
 158                   -0.02284   2.13257
 159                   -0.02297   2.16393
 160                   -0.02310   2.19529
 161                   -0.02322   2.22666
 162                   -0.02334   2.25802
 163                   -0.02345   2.28938
 164                   -0.02356   2.32075
 165                   -0.02366   2.35211
 166                   -0.02376   2.38347
 167                   -0.02386   2.41483
 168                   -0.02395   2.44620
 169                   -0.02403   2.47756
 170                   -0.02412   2.50892
 171                   -0.02419   2.54029
 172                   -0.02427   2.57165
 173                   -0.02434   2.60301
 174                   -0.02441   2.63437
 175                   -0.02448   2.66574
 176                   -0.02454   2.69710
 177                   -0.02460   2.72846
 178                   -0.02465   2.75983
 179                   -0.02471   2.79119
 180                   -0.02476   2.82255
 181                   -0.02481   2.85391
 182                   -0.02485   2.88528
 183                   -0.02490   2.91664
 184                   -0.02494   2.94800
 185                   -0.02498   2.97937
 186                   -0.02502   3.01073
 187                   -0.02505   3.04209
 188                   -0.02509   3.07345
 189                   -0.02512   3.10482
 190                   -0.02515   3.13618
 --------------------------------------------------------------------------
 
 Total number of points:                  189
 Total number of gradient calculations:   190
 Total number of Hessian calculations:    190
 IRC-IRC-IRC-IRC-IRC-IRC-IRC-IRC-IRC-IRC-IRC-IRC-IRC-IRC-IRC-IRC-IRC-IRC
 Leave Link  123 at Wed Mar  6 17:57:37 2024, MaxMem=   104857600 cpu:               0.0 elap:               0.0
 (Enter /opt/g16/l202.exe)
                          Input orientation:                          
 ---------------------------------------------------------------------
 Center     Atomic      Atomic             Coordinates (Angstroms)
 Number     Number       Type             X           Y           Z
 ---------------------------------------------------------------------
      1          1           0       -0.686348   -0.627518   -0.954859
      2          1           0        0.813833    0.942979    0.839287
      3          1           0       -0.950875    0.814418    0.860902
      4          1           0        0.054866   -0.595696    1.275079
      5          1           0        0.134513   -2.913019    2.303514
      6          6           0       -0.024113    0.283466    0.629392
      7          8           0        0.057999   -0.062747   -0.744965
 ---------------------------------------------------------------------
                    Distance matrix (angstroms):
                    1          2          3          4          5
     1  H    0.000000
     2  H    2.817084   0.000000
     3  H    2.333697   1.769516   0.000000
     4  H    2.350114   1.770160   1.780865   0.000000
     5  H    4.063781   4.180210   4.141616   2.536534   0.000000
     6  C    1.943785   1.086814   1.092884   1.093653   3.611836
     7  O    0.957640   2.023023   2.089511   2.089168   4.174102
                    6          7
     6  C    0.000000
     7  O    1.419670   0.000000
 Symmetry turned off by external request.
 Stoichiometry    CH5O(2)
 Framework group  C1[X(CH5O)]
 Deg. of freedom    15
 Full point group                 C1      NOp   1
 Rotational constants (GHZ):          37.4814288          19.6826225          14.4837535
 Leave Link  202 at Wed Mar  6 17:57:37 2024, MaxMem=   104857600 cpu:               0.0 elap:               0.0
 (Enter /opt/g16/l601.exe)
 Leave Link  601 at Wed Mar  6 17:57:37 2024, MaxMem=   104857600 cpu:               0.0 elap:               0.0
 (Enter /opt/g16/l9999.exe)

 This type of calculation cannot be archived.


 IF AT FIRST YOU DON'T SUCCEED, TRY, TRY AGAIN.
 THEN GIVE UP;
 THERE'S NO USE BEING A DAMN FOOL ABOUT IT.

                                 -- W. C. FIELDS
 Job cpu time:       0 days  0 hours  0 minutes 41.7 seconds.
 Elapsed time:       0 days  0 hours  6 minutes 32.4 seconds.
 File lengths (MBytes):  RWF=      6 Int=      0 D2E=      0 Chk=      2 Scr=      1
 Normal termination of Gaussian 16 at Wed Mar  6 17:57:37 2024.
