 Entering Gaussian System, Link 0=g16
 Initial command:
 /opt/g16/l1.exe "/home/jh-li/scratch/g16/Gau-256983.inp" -scrdir="/home/jh-li/scratch/g16/"
 Entering Link 1 = /opt/g16/l1.exe PID=    256986.
  
 Copyright (c) 1988-2019, Gaussian, Inc.  All Rights Reserved.
  
 This is part of the Gaussian(R) 16 program.  It is based on
 the Gaussian(R) 09 system (copyright 2009, Gaussian, Inc.),
 the Gaussian(R) 03 system (copyright 2003, Gaussian, Inc.),
 the Gaussian(R) 98 system (copyright 1998, Gaussian, Inc.),
 the Gaussian(R) 94 system (copyright 1995, Gaussian, Inc.),
 the Gaussian 92(TM) system (copyright 1992, Gaussian, Inc.),
 the Gaussian 90(TM) system (copyright 1990, Gaussian, Inc.),
 the Gaussian 88(TM) system (copyright 1988, Gaussian, Inc.),
 the Gaussian 86(TM) system (copyright 1986, Carnegie Mellon
 University), and the Gaussian 82(TM) system (copyright 1983,
 Carnegie Mellon University). Gaussian is a federally registered
 trademark of Gaussian, Inc.
  
 This software contains proprietary and confidential information,
 including trade secrets, belonging to Gaussian, Inc.
  
 This software is provided under written license and may be
 used, copied, transmitted, or stored only in accord with that
 written license.
  
 The following legend is applicable only to US Government
 contracts under FAR:
  
                    RESTRICTED RIGHTS LEGEND
  
 Use, reproduction and disclosure by the US Government is
 subject to restrictions as set forth in subparagraphs (a)
 and (c) of the Commercial Computer Software - Restricted
 Rights clause in FAR 52.227-19.
  
 Gaussian, Inc.
 340 Quinnipiac St., Bldg. 40, Wallingford CT 06492
  
  
 ---------------------------------------------------------------
 Warning -- This program may not be used in any manner that
 competes with the business of Gaussian, Inc. or will provide
 assistance to any competitor of Gaussian, Inc.  The licensee
 of this program is prohibited from giving any competitor of
 Gaussian, Inc. access to this program.  By using this program,
 the user acknowledges that Gaussian, Inc. is engaged in the
 business of creating and licensing software in the field of
 computational chemistry and represents and warrants to the
 licensee that it is not a competitor of Gaussian, Inc. and that
 it will not use this program in any manner prohibited above.
 ---------------------------------------------------------------
  

 Cite this work as:
 Gaussian 16, Revision C.01,
 M. J. Frisch, G. W. Trucks, H. B. Schlegel, G. E. Scuseria, 
 M. A. Robb, J. R. Cheeseman, G. Scalmani, V. Barone, 
 G. A. Petersson, H. Nakatsuji, X. Li, M. Caricato, A. V. Marenich, 
 J. Bloino, B. G. Janesko, R. Gomperts, B. Mennucci, H. P. Hratchian, 
 J. V. Ortiz, A. F. Izmaylov, J. L. Sonnenberg, D. Williams-Young, 
 F. Ding, F. Lipparini, F. Egidi, J. Goings, B. Peng, A. Petrone, 
 T. Henderson, D. Ranasinghe, V. G. Zakrzewski, J. Gao, N. Rega, 
 G. Zheng, W. Liang, M. Hada, M. Ehara, K. Toyota, R. Fukuda, 
 J. Hasegawa, M. Ishida, T. Nakajima, Y. Honda, O. Kitao, H. Nakai, 
 T. Vreven, K. Throssell, J. A. Montgomery, Jr., J. E. Peralta, 
 F. Ogliaro, M. J. Bearpark, J. J. Heyd, E. N. Brothers, K. N. Kudin, 
 V. N. Staroverov, T. A. Keith, R. Kobayashi, J. Normand, 
 K. Raghavachari, A. P. Rendell, J. C. Burant, S. S. Iyengar, 
 J. Tomasi, M. Cossi, J. M. Millam, M. Klene, C. Adamo, R. Cammi, 
 J. W. Ochterski, R. L. Martin, K. Morokuma, O. Farkas, 
 J. B. Foresman, and D. J. Fox, Gaussian, Inc., Wallingford CT, 2019.
 
 ******************************************
 Gaussian 16:  ES64L-G16RevC.01  3-Jul-2019
                 6-Mar-2024 
 ******************************************
 %nproc=1
 Will use up to    1 processors via shared memory.
 %oldchk=ts3-opt-freq.chk
 Copying data from "ts3-opt-freq.chk" to current chk file "/home/jh-li/scratch/g16/Gau-256986.chk"
 IOpt=  2 FromEx=T IUOpen= 4 IOptOp= 5 NList=   0 IFRang= 0 IUIn= 4 IUOut= 2.
 ----------------------------------------------------------------------
 #p external="python3 -u ../pes/h5co_pes.py" irc=(calcall,stepsize=3,ma
 xpoint=100) geom=allcheck
 ----------------------------------------------------------------------
 1/6=10,10=4,18=10,26=1,29=7,38=1,39=3,42=100,44=3,71=1,172=1/1,23;
 2/12=2,29=1,40=1/2;
 3/11=9,14=-4,25=1,30=1,41=9900000,43=2,71=2,140=1/1;
 4/20=17,22=1002,24=3,113=1,114=1/2;
 6/7=2,8=2,9=2,10=2,18=1/1;
 7/25=1,44=-1/16;
 1/6=10,10=4,18=10,26=1,39=3,42=100,44=3,71=1/23(2);
 2/29=1/2;
 99/5=20/99;
 2/29=1/2;
 3/11=9,14=-2,25=1,30=1,41=9900000,43=2,71=2,140=1/1;
 4/16=2,20=17,22=1002,24=3,113=1,114=1/2;
 7/25=1,44=-1/16;
 1/6=10,10=4,18=10,26=1,39=3,42=100,44=3,71=1/23(-4);
 2/29=1/2;
 6/7=2,8=2,9=2,10=2,18=1/1;
 99/5=20/99;
 Leave Link    1 at Wed Mar  6 18:38:09 2024, MaxMem=   104857600 cpu:               0.0 elap:               0.0
 (Enter /opt/g16/l101.exe)
 Structure from the checkpoint file:  "/home/jh-li/scratch/g16/Gau-256986.chk"
 ----------------------
 H + CH3OH -> H2O + CH3
 ----------------------
 Charge =  0 Multiplicity = 2
 Redundant internal coordinates found in file.  (old form).
 H,0,-0.3797496485,-0.9484529816,1.0969095295
 H,0,-0.4937434444,0.7531863354,1.022170543
 H,0,0.5795908223,-0.8716244671,-1.0858623994
 H,0,0.4019283162,0.92993264,-1.1597306658
 H,0,-1.0511167099,-0.1320520485,-1.0711403217
 C,0,-0.0057534848,-0.0062752069,-0.8002154433
 O,0,0.0711068463,0.0100591647,0.6781911873
 Recover connectivity data from disk.
 ITRead=  0  0  0  0  0  0  0
 MicOpt= -1 -1 -1 -1 -1 -1 -1
 NAtoms=      7 NQM=        7 NQMF=       0 NMMI=      0 NMMIF=      0
                NMic=       0 NMicF=      0.
                    Isotopes and Nuclear Properties:
 (Nuclear quadrupole moments (NQMom) in fm**2, nuclear magnetic moments (NMagM)
  in nuclear magnetons)

  Atom         1           2           3           4           5           6           7
 IAtWgt=           1           1           1           1           1          12          16
 AtmWgt=   1.0078250   1.0078250   1.0078250   1.0078250   1.0078250  12.0000000  15.9949146
 NucSpn=           1           1           1           1           1           0           0
 AtZEff=   1.0000000   1.0000000   1.0000000   1.0000000   1.0000000   3.6000000   5.6000000
 NQMom=    0.0000000   0.0000000   0.0000000   0.0000000   0.0000000   0.0000000   0.0000000
 NMagM=    2.7928460   2.7928460   2.7928460   2.7928460   2.7928460   0.0000000   0.0000000
 AtZNuc=   1.0000000   1.0000000   1.0000000   1.0000000   1.0000000   6.0000000   8.0000000
 Leave Link  101 at Wed Mar  6 18:38:10 2024, MaxMem=   104857600 cpu:               0.2 elap:               0.2
 (Enter /opt/g16/l123.exe)
 IRC-IRC-IRC-IRC-IRC-IRC-IRC-IRC-IRC-IRC-IRC-IRC-IRC-IRC-IRC-IRC-IRC-IRC
 ------------------------------------------------------------------------
 INPUT DATA FOR L123
 ------------------------------------------------------------------------
 GENERAL PARAMETERS:
 Follow reaction path in both directions.
 Maximum points per path      = 100
 Step size                    =   0.030 bohr
 Integration scheme           = HPC                                 
    Redo corrector integration= Yes                                 
    DWI Weight Power          =  2
    DWI will use Hessian update vectors when possible.
    Max correction cycles     =  10
 Initial Hessian              = CalcFC
 Hessian evaluation           = Analytic at all predictor steps
                              = Update at all corrector steps
 Hessian updating method      = Bofill                              
 ------------------------------------------------------------------------
 IRC-IRC-IRC-IRC-IRC-IRC-IRC-IRC-IRC-IRC-IRC-IRC-IRC-IRC-IRC-IRC-IRC-IRC
 Leave Link  123 at Wed Mar  6 18:38:10 2024, MaxMem=   104857600 cpu:               0.0 elap:               0.0
 (Enter /opt/g16/l202.exe)
                          Input orientation:                          
 ---------------------------------------------------------------------
 Center     Atomic      Atomic             Coordinates (Angstroms)
 Number     Number       Type             X           Y           Z
 ---------------------------------------------------------------------
      1          1           0       -0.379750   -0.948453    1.096910
      2          1           0       -0.493743    0.753186    1.022171
      3          1           0        0.579591   -0.871624   -1.085862
      4          1           0        0.401928    0.929933   -1.159731
      5          1           0       -1.051117   -0.132052   -1.071140
      6          6           0       -0.005753   -0.006275   -0.800215
      7          8           0        0.071107    0.010059    0.678191
 ---------------------------------------------------------------------
                    Distance matrix (angstroms):
                    1          2          3          4          5
     1  H    0.000000
     2  H    1.707090   0.000000
     3  H    2.385525   2.869819   0.000000
     4  H    3.038384   2.365198   1.811803   0.000000
     5  H    2.411988   2.340142   1.790640   1.801943   0.000000
     6  C    2.150966   2.033717   1.083075   1.082562   1.087200
     7  O    1.139009   0.994794   2.036617   2.081722   2.083205
                    6          7
     6  C    0.000000
     7  O    1.480493   0.000000
 Symmetry turned off by external request.
 Stoichiometry    CH5O(2)
 Framework group  C1[X(CH5O)]
 Deg. of freedom    15
 Full point group                 C1      NOp   1
 Rotational constants (GHZ):          96.8131863          21.8837623          20.9343634
 Leave Link  202 at Wed Mar  6 18:38:10 2024, MaxMem=   104857600 cpu:               0.0 elap:               0.0
 (Enter /opt/g16/l301.exe)
 Standard basis: STO-3G (5D, 7F)
 Ernie: Thresh=  0.10000D-02 Tol=  0.10000D-05 Strict=F.
    15 basis functions,    45 primitive gaussians,    15 cartesian basis functions
    10 alpha electrons        9 beta electrons
       nuclear repulsion energy        45.5366103609 Hartrees.
 IExCor=    0 DFT=F Ex=HF Corr=None ExCW=0 ScaHFX=  1.000000
 ScaDFX=  1.000000  1.000000  1.000000  1.000000 ScalE2=  1.000000  1.000000
 IRadAn=      5 IRanWt=     -1 IRanGd=            0 ICorTp=0 IEmpDi=  4
 NAtoms=    7 NActive=    7 NUniq=    7 SFac= 1.00D+00 NAtFMM=   60 NAOKFM=F Big=F
 Integral buffers will be    131072 words long.
 Raffenetti 2 integral format.
 Two-electron integral symmetry is turned off.
 Leave Link  301 at Wed Mar  6 18:38:10 2024, MaxMem=   104857600 cpu:               0.1 elap:               0.0
 (Enter /opt/g16/l402.exe)
 External calculation of energy, first and second derivatives.
 Running external command "python3 -u ../pes/h5co_pes.py R"
         input file       "/home/jh-li/scratch/g16/Gau-256986.EIn"
         output file      "/home/jh-li/scratch/g16/Gau-256986.EOu"
         message file     "/home/jh-li/scratch/g16/Gau-256986.EMs"
         fchk file        "/home/jh-li/scratch/g16/Gau-256986.EFC"
         mat. el file     "/home/jh-li/scratch/g16/Gau-256986.EUF"
 Recovered energy= -116.074045105     dipole=      0.000000000000      0.000000000000      0.000000000000
 NRF= 0 NRA=   0 NVA=   0 HaveQM=F NVQ=       0
 Convergence limit is  0.750E-04 MaxStp= 10000 StMxLn= 3.00D-04 StpMin= 1.00D-06.
 Convergence criteria             0.00011250 0.00007500 0.00045000 0.00030000
  Step  NS  ND Rises OKQ   Scale  Max. Force  RMS Force Max. Disp.  RMS Disp.     Energy   Flag
     1   0   0   F    T  1.00D+00 0.00000000 0.00000000 0.00000000 0.00000000 -116.0740451 ====
 Running external command "python3 -u ../pes/h5co_pes.py R"
         input file       "/home/jh-li/scratch/g16/Gau-256986.EIn"
         output file      "/home/jh-li/scratch/g16/Gau-256986.EOu"
         message file     "/home/jh-li/scratch/g16/Gau-256986.EMs"
         fchk file        "/home/jh-li/scratch/g16/Gau-256986.EFC"
         mat. el file     "/home/jh-li/scratch/g16/Gau-256986.EUF"
 Recovered energy= -116.074045105     dipole=      0.000000000000      0.000000000000      0.000000000000
 Energy=    -116.074045     NIter=   0.
 Dipole moment=       0.000000       0.000000       0.000000
 Leave Link  402 at Wed Mar  6 18:38:12 2024, MaxMem=   104857600 cpu:               0.0 elap:               2.0
 (Enter /opt/g16/l601.exe)
 Leave Link  601 at Wed Mar  6 18:38:12 2024, MaxMem=   104857600 cpu:               0.0 elap:               0.0
 (Enter /opt/g16/l716.exe)
 Dipole        = 0.00000000D+00 0.00000000D+00 0.00000000D+00
 -------------------------------------------------------------------
 Center     Atomic                   Forces (Hartrees/Bohr)
 Number     Number              X              Y              Z
 -------------------------------------------------------------------
      1        1          -0.000008328   -0.000004267    0.000001872
      2        1          -0.000003581   -0.000003417    0.000004001
      3        1          -0.000001471   -0.000003314    0.000003311
      4        1           0.000007217   -0.000001446    0.000005107
      5        1           0.000003417    0.000003391    0.000002231
      6        6          -0.000009607   -0.000010260   -0.000001517
      7        8           0.000007986    0.000000804    0.000006550
 -------------------------------------------------------------------
 Cartesian Forces:  Max     0.000010260 RMS     0.000005216
 Force constants in Cartesian coordinates: 
                1             2             3             4             5 
      1  0.157530D-02
      2 -0.116230D-01 -0.449472D-02
      3  0.341893D-02  0.115386D-01  0.192522D-01
      4  0.206489D-01  0.302681D-01 -0.212788D-01  0.103039D+00
      5 -0.171793D-01 -0.556836D-01  0.240694D-01 -0.121455D+00  0.175850D+00
      6 -0.158020D-01 -0.243729D-01  0.182390D-01 -0.573760D-01  0.691681D-01
      7 -0.308959D-02 -0.190144D-02 -0.172922D-02  0.873890D-03 -0.224808D-02
      8  0.277958D-02 -0.193894D-03 -0.373883D-02  0.297090D-02  0.519877D-04
      9  0.501782D-03  0.217617D-02 -0.173946D-02 -0.486507D-02  0.601809D-02
     10  0.845375D-04  0.963443D-03 -0.693837D-03 -0.128339D-02 -0.126422D-02
     11 -0.414073D-02 -0.205933D-02  0.359744D-02 -0.266921D-03 -0.496978D-02
     12 -0.401962D-02 -0.858246D-02  0.436654D-02  0.342852D-02 -0.273825D-02
     13  0.198340D-02  0.268455D-02  0.129825D-03  0.721813D-03  0.158547D-02
     14 -0.182357D-02 -0.418751D-02 -0.169767D-02  0.246776D-02 -0.387001D-02
     15 -0.444862D-03 -0.641881D-02  0.443052D-02 -0.214217D-02  0.420722D-02
     16  0.292260D-02 -0.541808D-02  0.134652D-01  0.208039D-04  0.515716D-02
     17  0.982367D-02  0.197608D-01  0.106181D-01 -0.160530D-01  0.224478D-01
     18  0.201096D-01  0.467971D-01 -0.221396D-01 -0.733927D-02  0.731648D-02
     19 -0.241268D-01 -0.149683D-01  0.668279D-02 -0.124030D+00  0.135415D+00
     20  0.221485D-01  0.468213D-01 -0.443796D-01  0.102093D+00 -0.133851D+00
     21 -0.376298D-02 -0.211623D-01 -0.224074D-01  0.895709D-01 -0.108017D+00
                6             7             8             9            10 
      6  0.739934D-01
      7 -0.106845D-02  0.144723D+00
      8 -0.477981D-02 -0.141633D+00  0.253095D+00
      9  0.973895D-03 -0.426920D-01  0.660010D-01  0.717159D-01
     10 -0.232190D-02  0.831921D-02  0.146712D-01 -0.534858D-02  0.923477D-01
     11  0.289576D-02 -0.904150D-02 -0.187998D-01  0.662402D-02  0.106900D+00
     12 -0.443762D-02 -0.269285D-02 -0.846777D-02  0.482847D-02 -0.384477D-01
     13 -0.778522D-03 -0.136477D-01 -0.656304D-02 -0.356734D-02 -0.928239D-02
     14  0.237448D-03  0.263962D-01  0.381574D-02  0.620852D-02 -0.257615D-01
     15  0.187895D-02  0.897694D-02  0.108629D-02  0.161030D-02  0.954781D-02
     16  0.231518D-01 -0.143809D+00  0.133733D+00  0.331142D-01 -0.951842D-01
     17 -0.108573D-01  0.124963D+00 -0.239155D+00 -0.546568D-01 -0.970741D-01
     18 -0.639759D-03  0.495018D-01 -0.637505D-01 -0.581060D-01  0.431821D-01
     19  0.542001D-01  0.664013D-02 -0.596185D-02  0.228490D-01  0.500278D-02
     20 -0.323032D-01  0.346059D-02  0.120271D-02 -0.323600D-01  0.156666D-02
     21 -0.900104D-01 -0.102845D-01  0.136284D-01 -0.192972D-01 -0.591164D-02
               11            12            13            14            15 
     11  0.286630D+00
     12 -0.900526D-01  0.826561D-01
     13  0.224852D-02 -0.306928D-02  0.343870D+00
     14 -0.133059D-02 -0.749954D-02  0.346780D-01  0.515290D-01
     15 -0.129810D-02  0.298212D-02  0.766445D-01  0.100060D-01  0.768722D-01
     16 -0.102050D+00  0.321464D-01 -0.322101D+00 -0.340402D-01 -0.580757D-01
     17 -0.272271D+00  0.838249D-01 -0.280176D-01 -0.579116D-01 -0.465401D-02
     18  0.934452D-01 -0.747864D-01 -0.701960D-01 -0.603441D-02 -0.647422D-01
     19  0.635477D-02  0.126478D-01 -0.151555D-02 -0.191475D-02 -0.345052D-01
     20  0.128151D-01  0.335125D-01 -0.661132D-02  0.119503D-01 -0.292399D-02
     21 -0.151905D-01 -0.156277D-01  0.815734D-03 -0.122269D-02 -0.230501D-01
               16            17            18            19            20 
     16  0.620761D+00
     17 -0.180288D-02  0.630089D+00
     18 -0.270757D-01 -0.225261D-01  0.346881D+00
     19 -0.626488D-01  0.815580D-02 -0.818048D-02  0.200685D+00
     20  0.442021D-02 -0.102980D+00 -0.552299D-01 -0.127090D+00  0.164095D+00
     21 -0.167261D-01 -0.174302D-02 -0.126404D+00 -0.536901D-01  0.133682D+00
               21 
     21  0.296785D+00
 Leave Link  716 at Wed Mar  6 18:38:12 2024, MaxMem=   104857600 cpu:               0.0 elap:               0.0
 (Enter /opt/g16/l123.exe)
 IRC-IRC-IRC-IRC-IRC-IRC-IRC-IRC-IRC-IRC-IRC-IRC-IRC-IRC-IRC-IRC-IRC-IRC
          ******** Start new reaction path calculation ********
 Current Structure is TS -> form Hessian eigenvectors.
                            Diagonalizing Hessian.
 Supplied step size of   0.0300 bohr.
    Integration on MW PES will use step size of   0.0319 sqrt(amu)*bohr.
 Point Number:   0          Path Number:   1
 Calculating another point on the path.
 Point Number  1 in FORWARD path direction.
 Using LQA Reaction Path Following.
 IRC-IRC-IRC-IRC-IRC-IRC-IRC-IRC-IRC-IRC-IRC-IRC-IRC-IRC-IRC-IRC-IRC-IRC
 Leave Link  123 at Wed Mar  6 18:38:12 2024, MaxMem=   104857600 cpu:               0.0 elap:               0.0
 (Enter /opt/g16/l202.exe)
                          Input orientation:                          
 ---------------------------------------------------------------------
 Center     Atomic      Atomic             Coordinates (Angstroms)
 Number     Number       Type             X           Y           Z
 ---------------------------------------------------------------------
      1          1           0       -0.389963   -0.955206    1.101063
      2          1           0       -0.496140    0.755715    1.018639
      3          1           0        0.575600   -0.865942   -1.085807
      4          1           0        0.398387    0.934658   -1.162980
      5          1           0       -1.054264   -0.127213   -1.072679
      6          6           0       -0.009371   -0.000284   -0.800452
      7          8           0        0.067921    0.016468    0.676252
 ---------------------------------------------------------------------
                    Distance matrix (angstroms):
                    1          2          3          4          5
     1  H    0.000000
     2  H    1.716194   0.000000
     3  H    2.392213   2.864802   0.000000
     4  H    3.052700   2.364669   1.810944   0.000000
     5  H    2.419096   2.337665   1.789512   1.801643   0.000000
     6  C    2.161594   2.029180   1.083044   1.082501   1.087208
     7  O    1.155108   0.990898   2.035004   2.082080   2.082956
                    6          7
     6  C    0.000000
     7  O    1.478821   0.000000
 Symmetry turned off by external request.
 Stoichiometry    CH5O(2)
 Framework group  C1[X(CH5O)]
 Deg. of freedom    15
 Full point group                 C1      NOp   1
 Rotational constants (GHZ):          96.4256792          21.9040474          20.9399460
 Leave Link  202 at Wed Mar  6 18:38:12 2024, MaxMem=   104857600 cpu:               0.0 elap:               0.0
 (Enter /opt/g16/l301.exe)
 Standard basis: STO-3G (5D, 7F)
 Ernie: Thresh=  0.10000D-02 Tol=  0.10000D-05 Strict=F.
    15 basis functions,    45 primitive gaussians,    15 cartesian basis functions
    10 alpha electrons        9 beta electrons
       nuclear repulsion energy        45.5162106807 Hartrees.
 IExCor=    0 DFT=F Ex=HF Corr=None ExCW=0 ScaHFX=  1.000000
 ScaDFX=  1.000000  1.000000  1.000000  1.000000 ScalE2=  1.000000  1.000000
 IRadAn=      5 IRanWt=     -1 IRanGd=            0 ICorTp=0 IEmpDi=  4
 NAtoms=    7 NActive=    7 NUniq=    7 SFac= 1.00D+00 NAtFMM=   60 NAOKFM=F Big=F
 Integral buffers will be    131072 words long.
 Raffenetti 2 integral format.
 Two-electron integral symmetry is turned off.
 Leave Link  301 at Wed Mar  6 18:38:12 2024, MaxMem=   104857600 cpu:               0.1 elap:               0.1
 (Enter /opt/g16/l402.exe)
 External calculation of energy, first and second derivatives.
 Running external command "python3 -u ../pes/h5co_pes.py R"
         input file       "/home/jh-li/scratch/g16/Gau-256986.EIn"
         output file      "/home/jh-li/scratch/g16/Gau-256986.EOu"
         message file     "/home/jh-li/scratch/g16/Gau-256986.EMs"
         fchk file        "/home/jh-li/scratch/g16/Gau-256986.EFC"
         mat. el file     "/home/jh-li/scratch/g16/Gau-256986.EUF"
 Recovered energy= -116.074071258     dipole=      0.000000000000      0.000000000000      0.000000000000
 NRF= 0 NRA=   0 NVA=   0 HaveQM=F NVQ=       0
 Convergence limit is  0.750E-04 MaxStp= 10000 StMxLn= 3.00D-04 StpMin= 1.00D-06.
 Convergence criteria             0.00011250 0.00007500 0.00045000 0.00030000
  Step  NS  ND Rises OKQ   Scale  Max. Force  RMS Force Max. Disp.  RMS Disp.     Energy   Flag
     1   0   0   F    T  1.00D+00 0.00000000 0.00000000 0.00000000 0.00000000 -116.0740713 ====
 Running external command "python3 -u ../pes/h5co_pes.py R"
         input file       "/home/jh-li/scratch/g16/Gau-256986.EIn"
         output file      "/home/jh-li/scratch/g16/Gau-256986.EOu"
         message file     "/home/jh-li/scratch/g16/Gau-256986.EMs"
         fchk file        "/home/jh-li/scratch/g16/Gau-256986.EFC"
         mat. el file     "/home/jh-li/scratch/g16/Gau-256986.EUF"
 Recovered energy= -116.074071258     dipole=      0.000000000000      0.000000000000      0.000000000000
 Energy=    -116.074071     NIter=   0.
 Dipole moment=       0.000000       0.000000       0.000000
 Leave Link  402 at Wed Mar  6 18:38:14 2024, MaxMem=   104857600 cpu:               0.1 elap:               2.0
 (Enter /opt/g16/l716.exe)
 Dipole        = 0.00000000D+00 0.00000000D+00 0.00000000D+00
 -------------------------------------------------------------------
 Center     Atomic                   Forces (Hartrees/Bohr)
 Number     Number              X              Y              Z
 -------------------------------------------------------------------
      1        1          -0.000674754   -0.001257750    0.000543608
      2        1           0.000039799   -0.000202041   -0.000166758
      3        1          -0.000040284    0.000002646    0.000099428
      4        1           0.000006465   -0.000085207   -0.000179188
      5        1           0.000041269   -0.000063996   -0.000034846
      6        6          -0.000053352    0.000380600    0.001005653
      7        8           0.000676777    0.001205826   -0.001246939
 -------------------------------------------------------------------
 Cartesian Forces:  Max     0.001257750 RMS     0.000580920
 Force constants in Cartesian coordinates: 
                1             2             3             4             5 
      1 -0.117168D-02
      2 -0.147687D-01 -0.130306D-01
      3  0.505991D-02  0.144039D-01  0.160853D-01
      4  0.198175D-01  0.289037D-01 -0.204835D-01  0.109664D+00
      5 -0.167140D-01 -0.531474D-01  0.233587D-01 -0.129560D+00  0.184955D+00
      6 -0.152069D-01 -0.233909D-01  0.174814D-01 -0.610147D-01  0.738986D-01
      7 -0.307240D-02 -0.196026D-02 -0.176009D-02  0.893798D-03 -0.221452D-02
      8  0.279628D-02 -0.134275D-03 -0.359698D-02  0.287003D-02  0.148269D-03
      9  0.234103D-03  0.174639D-02 -0.132413D-02 -0.464147D-02  0.575297D-02
     10  0.482170D-04  0.858423D-03 -0.614570D-03 -0.120272D-02 -0.135840D-02
     11 -0.414666D-02 -0.208740D-02  0.349429D-02 -0.105521D-03 -0.514189D-02
     12 -0.395329D-02 -0.848010D-02  0.446861D-02  0.325699D-02 -0.236465D-02
     13  0.190686D-02  0.272241D-02  0.259547D-03  0.646734D-03  0.168824D-02
     14 -0.180940D-02 -0.405255D-02 -0.173405D-02  0.235424D-02 -0.373606D-02
     15 -0.472784D-03 -0.651175D-02  0.462442D-02 -0.228037D-02  0.413318D-02
     16  0.309985D-02 -0.511794D-02  0.129300D-01 -0.285487D-03  0.524073D-02
     17  0.956626D-02  0.190709D-01  0.104620D-01 -0.158262D-01  0.219893D-01
     18  0.209794D-01  0.478726D-01 -0.231175D-01 -0.968182D-02  0.109106D-01
     19 -0.206296D-01 -0.106318D-01  0.460330D-02 -0.129543D+00  0.142929D+00
     20  0.250641D-01  0.533492D-01 -0.463832D-01  0.111385D+00 -0.145086D+00
     21 -0.664013D-02 -0.256655D-01 -0.182151D-01  0.948426D-01 -0.115665D+00
                6             7             8             9            10 
      6  0.772560D-01
      7 -0.108661D-02  0.144798D+00
      8 -0.478729D-02 -0.141639D+00  0.253448D+00
      9  0.696399D-03 -0.425003D-01  0.659717D-01  0.721549D-01
     10 -0.226669D-02  0.839442D-02  0.146547D-01 -0.547777D-02  0.923114D-01
     11  0.285001D-02 -0.895423D-02 -0.188815D-01  0.659630D-02  0.106607D+00
     12 -0.428077D-02 -0.274465D-02 -0.853762D-02  0.472247D-02 -0.387901D-01
     13 -0.814063D-03 -0.136645D-01 -0.642070D-02 -0.353118D-02 -0.925145D-02
     14  0.168917D-03  0.264960D-01  0.391148D-02  0.625522D-02 -0.256515D-01
     15  0.189104D-02  0.900249D-02  0.105266D-02  0.148916D-02  0.956798D-02
     16  0.236542D-01 -0.143998D+00  0.133584D+00  0.328166D-01 -0.953145D-01
     17 -0.114865D-01  0.124814D+00 -0.239349D+00 -0.540607D-01 -0.969332D-01
     18  0.204772D-03  0.493841D-01 -0.635064D-01 -0.578269D-01  0.433676D-01
     19  0.567406D-01  0.665879D-02 -0.584840D-02  0.230920D-01  0.501888D-02
     20 -0.372631D-01  0.345331D-02  0.873673D-03 -0.322509D-01  0.182388D-02
     21 -0.932497D-01 -0.102832D-01  0.133829D-01 -0.199252D-01 -0.578026D-02
               11            12            13            14            15 
     11  0.285743D+00
     12 -0.905986D-01  0.837816D-01
     13  0.197989D-02 -0.305747D-02  0.343532D+00
     14 -0.130379D-02 -0.756831D-02  0.348884D-01  0.516314D-01
     15 -0.143030D-02  0.302362D-02  0.768424D-01  0.102596D-01  0.774305D-01
     16 -0.101643D+00  0.325491D-01 -0.321922D+00 -0.344006D-01 -0.579469D-01
     17 -0.271576D+00  0.842751D-01 -0.279010D-01 -0.580882D-01 -0.461238D-02
     18  0.939760D-01 -0.753371D-01 -0.703341D-01 -0.598657D-02 -0.648938D-01
     19  0.626565D-02  0.127327D-01 -0.121886D-02 -0.187511D-02 -0.347115D-01
     20  0.132617D-01  0.332711D-01 -0.695244D-02  0.116334D-01 -0.288641D-02
     21 -0.148668D-01 -0.163966D-01  0.614025D-03 -0.139717D-02 -0.235826D-01
               16            17            18            19            20 
     16  0.622024D+00
     17 -0.222050D-02  0.630813D+00
     18 -0.269110D-01 -0.233074D-01  0.354905D+00
     19 -0.636424D-01  0.849521D-02 -0.680201D-02  0.203363D+00
     20  0.455634D-02 -0.102880D+00 -0.599405D-01 -0.139344D+00  0.168891D+00
     21 -0.170913D-01 -0.126409D-02 -0.133869D+00 -0.556508D-01  0.145451D+00
               21 
     21  0.305220D+00
 Leave Link  716 at Wed Mar  6 18:38:14 2024, MaxMem=   104857600 cpu:               0.0 elap:               0.0
 (Enter /opt/g16/l123.exe)
 IRC-IRC-IRC-IRC-IRC-IRC-IRC-IRC-IRC-IRC-IRC-IRC-IRC-IRC-IRC-IRC-IRC-IRC
 Pt  1 Step number   1 out of a maximum of  10
 Using modified Bulirsch-Stoer corrector integration.
   Using distance weighted interpolants to fit PES.
 PreDWI: IReCr0= 2 IReCr1= 1 IReCr2= 1 IReCr3= 1
 Modified Bulirsch-Stoer Extrapolation Cycles:
    EPS =    0.000010000000000
    Cycle     1 NS=    48
      PEZero:  N= 2 I= 1 D=  8.32D-05 Err=  1.86D-04
    Cycle     2 NS=    64 Truncation Error =  0.000186222
      PEZero:  N= 3 I= 2 D=  8.32D-05 Err=  1.24D-04
      PEZero:  N= 3 I= 1 D=  1.66D-04 Err=  8.09D-09
    Cycle     3 NS=    96 Truncation Error =  0.000000008
 BS completed in    3 cycles and     208 integration steps.
 Maximum DWI energy   std dev =  0.000000395 at pt    20
 Maximum DWI gradient std dev =  0.020959898 at pt    39
 SUMMARY OF CORRECTOR INTEGRATION:
   Predictor End Point Energy =  -116.074071
   Old End Point Energy       =  -116.074071
   Corrected End Point Energy =  -116.074071
   Predictor End-Start Dist.  =     0.031940
   Old End-Start Dist.        =     0.031940
   New End-Start Dist.        =     0.031936
   New End-Old End Dist.      =     0.000438
 CORRECTOR INTEGRATION CONVERGENCE:
   Recorrection delta-x convergence threshold:    0.010000
   Delta-x Convergence Met
 Point Number:   1          Path Number:   1
                    CURRENT STRUCTURE
                Cartesian Coordinates (Ang):                
 ---------------------------------------------------------------------
 Center     Atomic                     Coordinates (Angstroms)
 Number     Number                        X           Y           Z
 ---------------------------------------------------------------------
      1          1                   -0.390010   -0.955262    1.101093
      2          1                   -0.496223    0.755814    1.018742
      3          1                    0.575595   -0.865954   -1.085855
      4          1                    0.398420    0.934660   -1.162900
      5          1                   -1.054269   -0.127168   -1.072678
      6          6                   -0.009371   -0.000301   -0.800467
      7          8                    0.067927    0.016469    0.676261
 ---------------------------------------------------------------------
   CHANGE IN THE REACTION COORDINATE =    0.03194
   NET REACTION COORDINATE UP TO THIS POINT =    0.03194
  # OF POINTS ALONG THE PATH =   1
  # OF STEPS =   1

 Calculating another point on the path.
 Point Number  2 in FORWARD path direction.
 Using LQA Reaction Path Following.
   LQA: T_Est iteration completed in    3 iterations.
 IRC-IRC-IRC-IRC-IRC-IRC-IRC-IRC-IRC-IRC-IRC-IRC-IRC-IRC-IRC-IRC-IRC-IRC
 Leave Link  123 at Wed Mar  6 18:38:14 2024, MaxMem=   104857600 cpu:               0.0 elap:               0.0
 (Enter /opt/g16/l202.exe)
                          Input orientation:                          
 ---------------------------------------------------------------------
 Center     Atomic      Atomic             Coordinates (Angstroms)
 Number     Number       Type             X           Y           Z
 ---------------------------------------------------------------------
      1          1           0       -0.396721   -0.967798    1.106493
      2          1           0       -0.495210    0.753002    1.016614
      3          1           0        0.575175   -0.865884   -1.084866
      4          1           0        0.398467    0.933806   -1.164798
      5          1           0       -1.053870   -0.127839   -1.073092
      6          6           0       -0.009416    0.000029   -0.799601
      7          8           0        0.068316    0.017273    0.675497
 ---------------------------------------------------------------------
                    Distance matrix (angstroms):
                    1          2          3          4          5
     1  H    0.000000
     2  H    1.725957   0.000000
     3  H    2.399380   2.860548   0.000000
     4  H    3.067113   2.364298   1.810111   0.000000
     5  H    2.426513   2.335562   1.788473   1.801328   0.000000
     6  C    2.172530   2.025241   1.083018   1.082441   1.087212
     7  O    1.171487   0.987532   2.033654   2.082239   2.082767
                    6          7
     6  C    0.000000
     7  O    1.477245   0.000000
 Symmetry turned off by external request.
 Stoichiometry    CH5O(2)
 Framework group  C1[X(CH5O)]
 Deg. of freedom    15
 Full point group                 C1      NOp   1
 Rotational constants (GHZ):          96.0061284          21.9213597          20.9413382
 Leave Link  202 at Wed Mar  6 18:38:14 2024, MaxMem=   104857600 cpu:               0.0 elap:               0.0
 (Enter /opt/g16/l301.exe)
 Standard basis: STO-3G (5D, 7F)
 Ernie: Thresh=  0.10000D-02 Tol=  0.10000D-05 Strict=F.
    15 basis functions,    45 primitive gaussians,    15 cartesian basis functions
    10 alpha electrons        9 beta electrons
       nuclear repulsion energy        45.4921166774 Hartrees.
 IExCor=    0 DFT=F Ex=HF Corr=None ExCW=0 ScaHFX=  1.000000
 ScaDFX=  1.000000  1.000000  1.000000  1.000000 ScalE2=  1.000000  1.000000
 IRadAn=      5 IRanWt=     -1 IRanGd=            0 ICorTp=0 IEmpDi=  4
 NAtoms=    7 NActive=    7 NUniq=    7 SFac= 1.00D+00 NAtFMM=   60 NAOKFM=F Big=F
 Integral buffers will be    131072 words long.
 Raffenetti 2 integral format.
 Two-electron integral symmetry is turned off.
 Leave Link  301 at Wed Mar  6 18:38:14 2024, MaxMem=   104857600 cpu:               0.1 elap:               0.1
 (Enter /opt/g16/l402.exe)
 External calculation of energy, first and second derivatives.
 Running external command "python3 -u ../pes/h5co_pes.py R"
         input file       "/home/jh-li/scratch/g16/Gau-256986.EIn"
         output file      "/home/jh-li/scratch/g16/Gau-256986.EOu"
         message file     "/home/jh-li/scratch/g16/Gau-256986.EMs"
         fchk file        "/home/jh-li/scratch/g16/Gau-256986.EFC"
         mat. el file     "/home/jh-li/scratch/g16/Gau-256986.EUF"
 Recovered energy= -116.074154002     dipole=      0.000000000000      0.000000000000      0.000000000000
 NRF= 0 NRA=   0 NVA=   0 HaveQM=F NVQ=       0
 Convergence limit is  0.750E-04 MaxStp= 10000 StMxLn= 3.00D-04 StpMin= 1.00D-06.
 Convergence criteria             0.00011250 0.00007500 0.00045000 0.00030000
  Step  NS  ND Rises OKQ   Scale  Max. Force  RMS Force Max. Disp.  RMS Disp.     Energy   Flag
     1   0   0   F    T  1.00D+00 0.00000000 0.00000000 0.00000000 0.00000000 -116.0741540 ====
 Running external command "python3 -u ../pes/h5co_pes.py R"
         input file       "/home/jh-li/scratch/g16/Gau-256986.EIn"
         output file      "/home/jh-li/scratch/g16/Gau-256986.EOu"
         message file     "/home/jh-li/scratch/g16/Gau-256986.EMs"
         fchk file        "/home/jh-li/scratch/g16/Gau-256986.EFC"
         mat. el file     "/home/jh-li/scratch/g16/Gau-256986.EUF"
 Recovered energy= -116.074154002     dipole=      0.000000000000      0.000000000000      0.000000000000
 Energy=    -116.074154     NIter=   0.
 Dipole moment=       0.000000       0.000000       0.000000
 Leave Link  402 at Wed Mar  6 18:38:16 2024, MaxMem=   104857600 cpu:               0.0 elap:               2.0
 (Enter /opt/g16/l716.exe)
 Dipole        = 0.00000000D+00 0.00000000D+00 0.00000000D+00
 -------------------------------------------------------------------
 Center     Atomic                   Forces (Hartrees/Bohr)
 Number     Number              X              Y              Z
 -------------------------------------------------------------------
      1        1          -0.001422450   -0.002672277    0.001155242
      2        1           0.000150487   -0.000498291   -0.000393803
      3        1          -0.000084212    0.000015382    0.000186262
      4        1           0.000005290   -0.000175084   -0.000382257
      5        1           0.000080971   -0.000134655   -0.000087478
      6        6          -0.000098989    0.000786091    0.002119081
      7        8           0.001365130    0.002657764   -0.002576743
 -------------------------------------------------------------------
 Cartesian Forces:  Max     0.002672277 RMS     0.001231749
 Force constants in Cartesian coordinates: 
                1             2             3             4             5 
      1 -0.351120D-02
      2 -0.169593D-01 -0.196227D-01
      3  0.626901D-02  0.164017D-01  0.132580D-01
      4  0.189033D-01  0.274148D-01 -0.196161D-01  0.115901D+00
      5 -0.161250D-01 -0.504026D-01  0.225317D-01 -0.137066D+00  0.193266D+00
      6 -0.145625D-01 -0.223220D-01  0.166757D-01 -0.644002D-01  0.782936D-01
      7 -0.303300D-02 -0.197450D-02 -0.180046D-02  0.895703D-03 -0.215714D-02
      8  0.279469D-02 -0.111565D-03 -0.343840D-02  0.277615D-02  0.231312D-03
      9 -0.238579D-04  0.131886D-02 -0.924290D-03 -0.441416D-02  0.548750D-02
     10  0.210508D-04  0.772503D-03 -0.548085D-03 -0.113387D-02 -0.143141D-02
     11 -0.412571D-02 -0.207632D-02  0.337197D-02  0.282999D-04 -0.526361D-02
     12 -0.387045D-02 -0.834479D-02  0.453986D-02  0.306350D-02 -0.197131D-02
     13  0.181020D-02  0.271490D-02  0.401679D-03  0.590567D-03  0.175668D-02
     14 -0.178820D-02 -0.390688D-02 -0.176387D-02  0.223507D-02 -0.359078D-02
     15 -0.498662D-03 -0.657212D-02  0.478724D-02 -0.242176D-02  0.406463D-02
     16  0.325069D-02 -0.482975D-02  0.123960D-01 -0.576112D-03  0.529522D-02
     17  0.928103D-02  0.183380D-01  0.103081D-01 -0.155410D-01  0.214381D-01
     18  0.216220D-01  0.485085D-01 -0.238803D-01 -0.117661D-01  0.141113D-01
     19 -0.174420D-01 -0.713235D-02  0.289227D-02 -0.134591D+00  0.149740D+00
     20  0.269132D-01  0.577552D-01 -0.474092D-01  0.120172D+00 -0.155692D+00
     21 -0.893569D-02 -0.290163D-01 -0.144522D-01  0.995523D-01 -0.122493D+00
                6             7             8             9            10 
      6  0.803883D-01
      7 -0.109293D-02  0.144840D+00
      8 -0.478500D-02 -0.141621D+00  0.253745D+00
      9  0.422815D-03 -0.423487D-01  0.659876D-01  0.726167D-01
     10 -0.220663D-02  0.847337D-02  0.146346D-01 -0.560693D-02  0.922930D-01
     11  0.281007D-02 -0.887223D-02 -0.189451D-01  0.657642D-02  0.106339D+00
     12 -0.409869D-02 -0.280460D-02 -0.860007D-02  0.461006D-02 -0.390979D-01
     13 -0.853628D-03 -0.136660D-01 -0.626182D-02 -0.349388D-02 -0.920972D-02
     14  0.110815D-03  0.265706D-01  0.401141D-02  0.630539D-02 -0.255462D-01
     15  0.191806D-02  0.902480D-02  0.103078D-02  0.136902D-02  0.958896D-02
     16  0.241229D-01 -0.144174D+00  0.133408D+00  0.325683D-01 -0.954812D-01
     17 -0.121433D-01  0.124677D+00 -0.239528D+00 -0.535347D-01 -0.968091D-01
     18  0.888274D-03  0.492836D-01 -0.633295D-01 -0.575636D-01  0.435150D-01
     19  0.589995D-01  0.667454D-02 -0.573466D-02  0.233113D-01  0.504163D-02
     20 -0.419729D-01  0.337235D-02  0.614131D-03 -0.321304D-01  0.204198D-02
     21 -0.961936D-01 -0.102501D-01  0.131138D-01 -0.205434D-01 -0.563823D-02
               11            12            13            14            15 
     11  0.284912D+00
     12 -0.910633D-01  0.848560D-01
     13  0.171520D-02 -0.303933D-02  0.343206D+00
     14 -0.126775D-02 -0.763186D-02  0.350491D-01  0.517093D-01
     15 -0.155422D-02  0.305659D-02  0.770276D-01  0.104920D-01  0.779650D-01
     16 -0.101257D+00  0.329168D-01 -0.321793D+00 -0.346872D-01 -0.578143D-01
     17 -0.270953D+00  0.846034D-01 -0.277697D-01 -0.582579D-01 -0.458807D-02
     18  0.943908D-01 -0.757718D-01 -0.704589D-01 -0.595306D-02 -0.649920D-01
     19  0.617591D-02  0.128255D-01 -0.909124D-03 -0.183106D-02 -0.349053D-01
     20  0.136089D-01  0.330049D-01 -0.719958D-02  0.112986D-01 -0.286841D-02
     21 -0.145111D-01 -0.172098D-01  0.395877D-03 -0.156169D-02 -0.241211D-01
               16            17            18            19            20 
     16  0.623380D+00
     17 -0.265581D-02  0.631617D+00
     18 -0.267264D-01 -0.238807D-01  0.362577D+00
     19 -0.646446D-01  0.881213D-02 -0.546698D-02  0.205878D+00
     20  0.472500D-02 -0.102674D+00 -0.638288D-01 -0.150040D+00  0.175121D+00
     21 -0.174621D-01 -0.758438D-03 -0.141190D+00 -0.576516D-01  0.155202D+00
               21 
     21  0.313686D+00
 Leave Link  716 at Wed Mar  6 18:38:16 2024, MaxMem=   104857600 cpu:               0.0 elap:               0.0
 (Enter /opt/g16/l123.exe)
 IRC-IRC-IRC-IRC-IRC-IRC-IRC-IRC-IRC-IRC-IRC-IRC-IRC-IRC-IRC-IRC-IRC-IRC
 Pt  2 Step number   1 out of a maximum of  10
 Using modified Bulirsch-Stoer corrector integration.
   Using distance weighted interpolants to fit PES.
 PreDWI: IReCr0= 2 IReCr1= 1 IReCr2= 1 IReCr3= 1
 Modified Bulirsch-Stoer Extrapolation Cycles:
    EPS =    0.000010000000000
    Cycle     1 NS=    48
      PEZero:  N= 2 I= 1 D=  1.66D-04 Err=  1.76D-06
    Cycle     2 NS=    64 Truncation Error =  0.000001761
 BS completed in    2 cycles and     112 integration steps.
 Maximum DWI energy   std dev =  0.000000319 at pt    37
 Maximum DWI gradient std dev =  0.009934255 at pt    11
 SUMMARY OF CORRECTOR INTEGRATION:
   Predictor End Point Energy =  -116.074154
   Old End Point Energy       =  -116.074154
   Corrected End Point Energy =  -116.074154
   Predictor End-Start Dist.  =     0.031929
   Old End-Start Dist.        =     0.031929
   New End-Start Dist.        =     0.031927
   New End-Old End Dist.      =     0.000198
 CORRECTOR INTEGRATION CONVERGENCE:
   Recorrection delta-x convergence threshold:    0.010000
   Delta-x Convergence Met
 Point Number:   2          Path Number:   1
                    CURRENT STRUCTURE
                Cartesian Coordinates (Ang):                
 ---------------------------------------------------------------------
 Center     Atomic                     Coordinates (Angstroms)
 Number     Number                        X           Y           Z
 ---------------------------------------------------------------------
      1          1                   -0.396730   -0.967823    1.106507
      2          1                   -0.495253    0.753071    1.016657
      3          1                    0.575178   -0.865885   -1.084887
      4          1                    0.398466    0.933811   -1.164778
      5          1                   -1.053873   -0.127830   -1.073092
      6          6                   -0.009415    0.000025   -0.799606
      7          8                    0.068319    0.017272    0.675497
 ---------------------------------------------------------------------
   CHANGE IN THE REACTION COORDINATE =    0.03193
   NET REACTION COORDINATE UP TO THIS POINT =    0.06386
  # OF POINTS ALONG THE PATH =   2
  # OF STEPS =   1

 Calculating another point on the path.
 Point Number  3 in FORWARD path direction.
 Using LQA Reaction Path Following.
   LQA: T_Est iteration completed in    3 iterations.
 IRC-IRC-IRC-IRC-IRC-IRC-IRC-IRC-IRC-IRC-IRC-IRC-IRC-IRC-IRC-IRC-IRC-IRC
 Leave Link  123 at Wed Mar  6 18:38:16 2024, MaxMem=   104857600 cpu:               0.0 elap:               0.0
 (Enter /opt/g16/l202.exe)
                          Input orientation:                          
 ---------------------------------------------------------------------
 Center     Atomic      Atomic             Coordinates (Angstroms)
 Number     Number       Type             X           Y           Z
 ---------------------------------------------------------------------
      1          1           0       -0.403454   -0.980470    1.111971
      2          1           0       -0.494370    0.750500    1.014692
      3          1           0        0.574781   -0.865794   -1.084041
      4          1           0        0.398490    0.932995   -1.166576
      5          1           0       -1.053484   -0.128460   -1.073521
      6          6           0       -0.009456    0.000332   -0.798768
      7          8           0        0.068715    0.018081    0.674739
 ---------------------------------------------------------------------
                    Distance matrix (angstroms):
                    1          2          3          4          5
     1  H    0.000000
     2  H    1.736084   0.000000
     3  H    2.406775   2.856601   0.000000
     4  H    3.081597   2.363987   1.809290   0.000000
     5  H    2.434099   2.333626   1.787462   1.800992   0.000000
     6  C    2.183605   2.021517   1.082999   1.082387   1.087232
     7  O    1.187948   0.984414   2.032399   2.082369   2.082599
                    6          7
     6  C    0.000000
     7  O    1.475686   0.000000
 Symmetry turned off by external request.
 Stoichiometry    CH5O(2)
 Framework group  C1[X(CH5O)]
 Deg. of freedom    15
 Full point group                 C1      NOp   1
 Rotational constants (GHZ):          95.5720957          21.9379552          20.9408203
 Leave Link  202 at Wed Mar  6 18:38:16 2024, MaxMem=   104857600 cpu:               0.0 elap:               0.0
 (Enter /opt/g16/l301.exe)
 Standard basis: STO-3G (5D, 7F)
 Ernie: Thresh=  0.10000D-02 Tol=  0.10000D-05 Strict=F.
    15 basis functions,    45 primitive gaussians,    15 cartesian basis functions
    10 alpha electrons        9 beta electrons
       nuclear repulsion energy        45.4675980539 Hartrees.
 IExCor=    0 DFT=F Ex=HF Corr=None ExCW=0 ScaHFX=  1.000000
 ScaDFX=  1.000000  1.000000  1.000000  1.000000 ScalE2=  1.000000  1.000000
 IRadAn=      5 IRanWt=     -1 IRanGd=            0 ICorTp=0 IEmpDi=  4
 NAtoms=    7 NActive=    7 NUniq=    7 SFac= 1.00D+00 NAtFMM=   60 NAOKFM=F Big=F
 Integral buffers will be    131072 words long.
 Raffenetti 2 integral format.
 Two-electron integral symmetry is turned off.
 Leave Link  301 at Wed Mar  6 18:38:16 2024, MaxMem=   104857600 cpu:               0.1 elap:               0.1
 (Enter /opt/g16/l402.exe)
 External calculation of energy, first and second derivatives.
 Running external command "python3 -u ../pes/h5co_pes.py R"
         input file       "/home/jh-li/scratch/g16/Gau-256986.EIn"
         output file      "/home/jh-li/scratch/g16/Gau-256986.EOu"
         message file     "/home/jh-li/scratch/g16/Gau-256986.EMs"
         fchk file        "/home/jh-li/scratch/g16/Gau-256986.EFC"
         mat. el file     "/home/jh-li/scratch/g16/Gau-256986.EUF"
 Recovered energy= -116.074299325     dipole=      0.000000000000      0.000000000000      0.000000000000
 NRF= 0 NRA=   0 NVA=   0 HaveQM=F NVQ=       0
 Convergence limit is  0.750E-04 MaxStp= 10000 StMxLn= 3.00D-04 StpMin= 1.00D-06.
 Convergence criteria             0.00011250 0.00007500 0.00045000 0.00030000
  Step  NS  ND Rises OKQ   Scale  Max. Force  RMS Force Max. Disp.  RMS Disp.     Energy   Flag
     1   0   0   F    T  1.00D+00 0.00000000 0.00000000 0.00000000 0.00000000 -116.0742993 ====
 Running external command "python3 -u ../pes/h5co_pes.py R"
         input file       "/home/jh-li/scratch/g16/Gau-256986.EIn"
         output file      "/home/jh-li/scratch/g16/Gau-256986.EOu"
         message file     "/home/jh-li/scratch/g16/Gau-256986.EMs"
         fchk file        "/home/jh-li/scratch/g16/Gau-256986.EFC"
         mat. el file     "/home/jh-li/scratch/g16/Gau-256986.EUF"
 Recovered energy= -116.074299325     dipole=      0.000000000000      0.000000000000      0.000000000000
 Energy=    -116.074299     NIter=   0.
 Dipole moment=       0.000000       0.000000       0.000000
 Leave Link  402 at Wed Mar  6 18:38:18 2024, MaxMem=   104857600 cpu:               0.0 elap:               2.0
 (Enter /opt/g16/l716.exe)
 Dipole        = 0.00000000D+00 0.00000000D+00 0.00000000D+00
 -------------------------------------------------------------------
 Center     Atomic                   Forces (Hartrees/Bohr)
 Number     Number              X              Y              Z
 -------------------------------------------------------------------
      1        1          -0.002237620   -0.004221235    0.001827666
      2        1           0.000232453   -0.000764171   -0.000599196
      3        1          -0.000127222    0.000030708    0.000256646
      4        1           0.000004272   -0.000265943   -0.000578420
      5        1           0.000125307   -0.000201762   -0.000143663
      6        6          -0.000147515    0.001168989    0.003259315
      7        8           0.002146874    0.004231452   -0.004002744
 -------------------------------------------------------------------
 Cartesian Forces:  Max     0.004231452 RMS     0.001930657
 Force constants in Cartesian coordinates: 
                1             2             3             4             5 
      1 -0.544459D-02
      2 -0.182593D-01 -0.243737D-01
      3  0.706837D-02  0.175901D-01  0.107707D-01
      4  0.179184D-01  0.258122D-01 -0.186854D-01  0.121980D+00
      5 -0.154111D-01 -0.474907D-01  0.215937D-01 -0.144393D+00  0.201296D+00
      6 -0.138684D-01 -0.211573D-01  0.158235D-01 -0.677074D-01  0.825768D-01
      7 -0.297399D-02 -0.195023D-02 -0.184862D-02  0.880413D-03 -0.207573D-02
      8  0.277757D-02 -0.116920D-03 -0.327208D-02  0.269301D-02  0.293439D-03
      9 -0.274930D-03  0.900793D-03 -0.541875D-03 -0.416873D-02  0.519690D-02
     10  0.356800D-05  0.707415D-03 -0.493604D-03 -0.107532D-02 -0.148616D-02
     11 -0.407845D-02 -0.202700D-02  0.323315D-02  0.136541D-03 -0.534075D-02
     12 -0.376730D-02 -0.816639D-02  0.457675D-02  0.286402D-02 -0.158454D-02
     13  0.169397D-02  0.266762D-02  0.550948D-03  0.553255D-03  0.178913D-02
     14 -0.176061D-02 -0.375163D-02 -0.179104D-02  0.211185D-02 -0.343796D-02
     15 -0.518271D-03 -0.659484D-02  0.491718D-02 -0.254791D-02  0.397776D-02
     16  0.338311D-02 -0.455476D-02  0.118664D-01 -0.841265D-03  0.532290D-02
     17  0.895970D-02  0.175480D-01  0.101725D-01 -0.152043D-01  0.208219D-01
     18  0.220460D-01  0.487261D-01 -0.244396D-01 -0.136355D-01  0.169893D-01
     19 -0.145811D-01 -0.441616D-02  0.153600D-02 -0.139426D+00  0.156267D+00
     20  0.277657D-01  0.601903D-01 -0.475271D-01  0.128860D+00 -0.166150D+00
     21 -0.106861D-01 -0.313251D-01 -0.111018D-01  0.103878D+00 -0.128725D+00
                6             7             8             9            10 
      6  0.834171D-01
      7 -0.108358D-02  0.144868D+00
      8 -0.478608D-02 -0.141600D+00  0.254001D+00
      9  0.136077D-03 -0.422311D-01  0.660333D-01  0.730972D-01
     10 -0.214121D-02  0.854992D-02  0.146132D-01 -0.573707D-02  0.922635D-01
     11  0.277928D-02 -0.879531D-02 -0.189935D-01  0.656602D-02  0.106072D+00
     12 -0.390394D-02 -0.286573D-02 -0.866480D-02  0.448777D-02 -0.393933D-01
     13 -0.903417D-03 -0.136637D-01 -0.609819D-02 -0.345710D-02 -0.916651D-02
     14  0.608982D-04  0.266273D-01  0.411207D-02  0.635481D-02 -0.254441D-01
     15  0.194210D-02  0.904642D-02  0.101361D-02  0.124644D-02  0.961359D-02
     16  0.245598D-01 -0.144334D+00  0.133228D+00  0.323560D-01 -0.956315D-01
     17 -0.128276D-01  0.124557D+00 -0.239686D+00 -0.530488D-01 -0.966842D-01
     18  0.141360D-02  0.491800D-01 -0.631696D-01 -0.572835D-01  0.436392D-01
     19  0.611512D-01  0.668381D-02 -0.561728D-02  0.235049D-01  0.506056D-02
     20 -0.466529D-01  0.323160D-02  0.407847D-03 -0.319924D-01  0.222354D-02
     21 -0.988259D-01 -0.101859D-01  0.128252D-01 -0.211541D-01 -0.548168D-02
               11            12            13            14            15 
     11  0.284121D+00
     12 -0.915199D-01  0.859143D-01
     13  0.145426D-02 -0.302137D-02  0.342871D+00
     14 -0.123319D-02 -0.769165D-02  0.352107D-01  0.517753D-01
     15 -0.166823D-02  0.307904D-02  0.772075D-01  0.107136D-01  0.784834D-01
     16 -0.100870D+00  0.332750D-01 -0.321665D+00 -0.349576D-01 -0.576919D-01
     17 -0.270374D+00  0.849062D-01 -0.276564D-01 -0.584158D-01 -0.457703D-02
     18  0.947573D-01 -0.761633D-01 -0.705555D-01 -0.593478D-02 -0.650437D-01
     19  0.608470D-02  0.129021D-01 -0.594915D-03 -0.178545D-02 -0.351083D-01
     20  0.138630D-01  0.327180D-01 -0.736240D-02  0.109476D-01 -0.286040D-02
     21 -0.141273D-01 -0.180080D-01  0.158595D-03 -0.171406D-02 -0.246411D-01
               16            17            18            19            20 
     16  0.624683D+00
     17 -0.309392D-02  0.632431D+00
     18 -0.265411D-01 -0.243363D-01  0.370055D+00
     19 -0.656338D-01  0.911607D-02 -0.413083D-02  0.208500D+00
     20  0.492408D-02 -0.102345D+00 -0.670135D-01 -0.159658D+00  0.183107D+00
     21 -0.178225D-01 -0.282521D-03 -0.148470D+00 -0.598505D-01  0.163326D+00
               21 
     21  0.322171D+00
 Leave Link  716 at Wed Mar  6 18:38:18 2024, MaxMem=   104857600 cpu:               0.0 elap:               0.0
 (Enter /opt/g16/l123.exe)
 IRC-IRC-IRC-IRC-IRC-IRC-IRC-IRC-IRC-IRC-IRC-IRC-IRC-IRC-IRC-IRC-IRC-IRC
 Pt  3 Step number   1 out of a maximum of  10
 Using modified Bulirsch-Stoer corrector integration.
   Using distance weighted interpolants to fit PES.
 PreDWI: IReCr0= 2 IReCr1= 1 IReCr2= 1 IReCr3= 1
 Modified Bulirsch-Stoer Extrapolation Cycles:
    EPS =    0.000010000000000
    Cycle     1 NS=    48
      PEZero:  N= 2 I= 1 D=  1.66D-04 Err=  1.53D-06
    Cycle     2 NS=    64 Truncation Error =  0.000001526
 BS completed in    2 cycles and     112 integration steps.
 Maximum DWI energy   std dev =  0.000000289 at pt    35
 Maximum DWI gradient std dev =  0.004690613 at pt    12
 SUMMARY OF CORRECTOR INTEGRATION:
   Predictor End Point Energy =  -116.074299
   Old End Point Energy       =  -116.074299
   Corrected End Point Energy =  -116.074299
   Predictor End-Start Dist.  =     0.031931
   Old End-Start Dist.        =     0.031931
   New End-Start Dist.        =     0.031930
   New End-Old End Dist.      =     0.000124
 CORRECTOR INTEGRATION CONVERGENCE:
   Recorrection delta-x convergence threshold:    0.010000
   Delta-x Convergence Met
 Point Number:   3          Path Number:   1
                    CURRENT STRUCTURE
                Cartesian Coordinates (Ang):                
 ---------------------------------------------------------------------
 Center     Atomic                     Coordinates (Angstroms)
 Number     Number                        X           Y           Z
 ---------------------------------------------------------------------
      1          1                   -0.403459   -0.980484    1.111979
      2          1                   -0.494400    0.750545    1.014718
      3          1                    0.574783   -0.865794   -1.084051
      4          1                    0.398488    0.932997   -1.166567
      5          1                   -1.053486   -0.128456   -1.073521
      6          6                   -0.009455    0.000330   -0.798770
      7          8                    0.068717    0.018080    0.674739
 ---------------------------------------------------------------------
   CHANGE IN THE REACTION COORDINATE =    0.03193
   NET REACTION COORDINATE UP TO THIS POINT =    0.09579
  # OF POINTS ALONG THE PATH =   3
  # OF STEPS =   1

 Calculating another point on the path.
 Point Number  4 in FORWARD path direction.
 Using LQA Reaction Path Following.
   LQA: T_Est iteration completed in    3 iterations.
 IRC-IRC-IRC-IRC-IRC-IRC-IRC-IRC-IRC-IRC-IRC-IRC-IRC-IRC-IRC-IRC-IRC-IRC
 Leave Link  123 at Wed Mar  6 18:38:18 2024, MaxMem=   104857600 cpu:               0.0 elap:               0.0
 (Enter /opt/g16/l202.exe)
                          Input orientation:                          
 ---------------------------------------------------------------------
 Center     Atomic      Atomic             Coordinates (Angstroms)
 Number     Number       Type             X           Y           Z
 ---------------------------------------------------------------------
      1          1           0       -0.410198   -0.993211    1.117489
      2          1           0       -0.493639    0.748174    1.012889
      3          1           0        0.574403   -0.865691   -1.083316
      4          1           0        0.398499    0.932206   -1.168288
      5          1           0       -1.053108   -0.129053   -1.073962
      6          6           0       -0.009492    0.000619   -0.797952
      7          8           0        0.069120    0.018891    0.673986
 ---------------------------------------------------------------------
                    Distance matrix (angstroms):
                    1          2          3          4          5
     1  H    0.000000
     2  H    1.746518   0.000000
     3  H    2.414383   2.852954   0.000000
     4  H    3.096127   2.363750   1.808479   0.000000
     5  H    2.441836   2.331841   1.786481   1.800648   0.000000
     6  C    2.194807   2.018014   1.082986   1.082340   1.087258
     7  O    1.204488   0.981533   2.031232   2.082452   2.082452
                    6          7
     6  C    0.000000
     7  O    1.474148   0.000000
 Symmetry turned off by external request.
 Stoichiometry    CH5O(2)
 Framework group  C1[X(CH5O)]
 Deg. of freedom    15
 Full point group                 C1      NOp   1
 Rotational constants (GHZ):          95.1241909          21.9537721          20.9384976
 Leave Link  202 at Wed Mar  6 18:38:18 2024, MaxMem=   104857600 cpu:               0.0 elap:               0.0
 (Enter /opt/g16/l301.exe)
 Standard basis: STO-3G (5D, 7F)
 Ernie: Thresh=  0.10000D-02 Tol=  0.10000D-05 Strict=F.
    15 basis functions,    45 primitive gaussians,    15 cartesian basis functions
    10 alpha electrons        9 beta electrons
       nuclear repulsion energy        45.4426692286 Hartrees.
 IExCor=    0 DFT=F Ex=HF Corr=None ExCW=0 ScaHFX=  1.000000
 ScaDFX=  1.000000  1.000000  1.000000  1.000000 ScalE2=  1.000000  1.000000
 IRadAn=      5 IRanWt=     -1 IRanGd=            0 ICorTp=0 IEmpDi=  4
 NAtoms=    7 NActive=    7 NUniq=    7 SFac= 1.00D+00 NAtFMM=   60 NAOKFM=F Big=F
 Integral buffers will be    131072 words long.
 Raffenetti 2 integral format.
 Two-electron integral symmetry is turned off.
 Leave Link  301 at Wed Mar  6 18:38:18 2024, MaxMem=   104857600 cpu:               0.1 elap:               0.1
 (Enter /opt/g16/l402.exe)
 External calculation of energy, first and second derivatives.
 Running external command "python3 -u ../pes/h5co_pes.py R"
         input file       "/home/jh-li/scratch/g16/Gau-256986.EIn"
         output file      "/home/jh-li/scratch/g16/Gau-256986.EOu"
         message file     "/home/jh-li/scratch/g16/Gau-256986.EMs"
         fchk file        "/home/jh-li/scratch/g16/Gau-256986.EFC"
         mat. el file     "/home/jh-li/scratch/g16/Gau-256986.EUF"
 Recovered energy= -116.074510875     dipole=      0.000000000000      0.000000000000      0.000000000000
 NRF= 0 NRA=   0 NVA=   0 HaveQM=F NVQ=       0
 Convergence limit is  0.750E-04 MaxStp= 10000 StMxLn= 3.00D-04 StpMin= 1.00D-06.
 Convergence criteria             0.00011250 0.00007500 0.00045000 0.00030000
  Step  NS  ND Rises OKQ   Scale  Max. Force  RMS Force Max. Disp.  RMS Disp.     Energy   Flag
     1   0   0   F    T  1.00D+00 0.00000000 0.00000000 0.00000000 0.00000000 -116.0745109 ====
 Running external command "python3 -u ../pes/h5co_pes.py R"
         input file       "/home/jh-li/scratch/g16/Gau-256986.EIn"
         output file      "/home/jh-li/scratch/g16/Gau-256986.EOu"
         message file     "/home/jh-li/scratch/g16/Gau-256986.EMs"
         fchk file        "/home/jh-li/scratch/g16/Gau-256986.EFC"
         mat. el file     "/home/jh-li/scratch/g16/Gau-256986.EUF"
 Recovered energy= -116.074510875     dipole=      0.000000000000      0.000000000000      0.000000000000
 Energy=    -116.074511     NIter=   0.
 Dipole moment=       0.000000       0.000000       0.000000
 Leave Link  402 at Wed Mar  6 18:38:20 2024, MaxMem=   104857600 cpu:               0.1 elap:               2.0
 (Enter /opt/g16/l716.exe)
 Dipole        = 0.00000000D+00 0.00000000D+00 0.00000000D+00
 -------------------------------------------------------------------
 Center     Atomic                   Forces (Hartrees/Bohr)
 Number     Number              X              Y              Z
 -------------------------------------------------------------------
      1        1          -0.003088942   -0.005844368    0.002534098
      2        1           0.000287815   -0.000997180   -0.000784339
      3        1          -0.000169454    0.000047898    0.000310402
      4        1           0.000002099   -0.000356533   -0.000769222
      5        1           0.000169075   -0.000265069   -0.000203914
      6        6          -0.000191012    0.001529928    0.004411431
      7        8           0.002987305    0.005862725   -0.005479595
 -------------------------------------------------------------------
 Cartesian Forces:  Max     0.005862725 RMS     0.002654361
 Force constants in Cartesian coordinates: 
                1             2             3             4             5 
      1 -0.699767D-02
      2 -0.187990D-01 -0.275172D-01
      3  0.751322D-02  0.180862D-01  0.860973D-02
      4  0.168800D-01  0.241245D-01 -0.177052D-01  0.127883D+00
      5 -0.145908D-01 -0.444568D-01  0.205613D-01 -0.151509D+00  0.209006D+00
      6 -0.131362D-01 -0.199193D-01  0.149377D-01 -0.709250D-01  0.867292D-01
      7 -0.289646D-02 -0.189045D-02 -0.190336D-02  0.849575D-03 -0.197180D-02
      8  0.274627D-02 -0.147214D-03 -0.310004D-02  0.261962D-02  0.336335D-03
      9 -0.517897D-03  0.494074D-03 -0.178458D-03 -0.390935D-02  0.488477D-02
     10 -0.447439D-05  0.662002D-03 -0.450481D-03 -0.102741D-02 -0.152232D-02
     11 -0.400594D-02 -0.194117D-02  0.307906D-02  0.219571D-03 -0.537390D-02
     12 -0.364820D-02 -0.795272D-02  0.458324D-02  0.266150D-02 -0.120799D-02
     13  0.155982D-02  0.258402D-02  0.705663D-03  0.533724D-03  0.178711D-02
     14 -0.172688D-02 -0.358790D-02 -0.181573D-02  0.198563D-02 -0.327899D-02
     15 -0.533589D-03 -0.658569D-02  0.501658D-02 -0.265810D-02  0.387330D-02
     16  0.349589D-02 -0.429702D-02  0.113445D-01 -0.107909D-02  0.532314D-02
     17  0.860531D-02  0.167077D-01  0.100539D-01 -0.148221D-01  0.201453D-01
     18  0.222657D-01  0.485509D-01 -0.248041D-01 -0.152898D-01  0.195460D-01
     19 -0.120376D-01 -0.237687D-02  0.489616D-03 -0.144051D+00  0.162497D+00
     20  0.277674D-01  0.609262D-01 -0.468682D-01  0.137395D+00 -0.176381D+00
     21 -0.119440D-01 -0.327004D-01 -0.815903D-02  0.107823D+00 -0.134362D+00
                6             7             8             9            10 
      6  0.863336D-01
      7 -0.106003D-02  0.144877D+00
      8 -0.478909D-02 -0.141572D+00  0.254220D+00
      9 -0.160871D-03 -0.421422D-01  0.661037D-01  0.735912D-01
     10 -0.207047D-02  0.862340D-02  0.145908D-01 -0.586690D-02  0.922325D-01
     11  0.275741D-02 -0.872516D-02 -0.190273D-01  0.656453D-02  0.105815D+00
     12 -0.370000D-02 -0.292777D-02 -0.873040D-02  0.435742D-02 -0.396768D-01
     13 -0.962222D-03 -0.136562D-01 -0.593106D-02 -0.342094D-02 -0.912109D-02
     14  0.184015D-04  0.266678D-01  0.421213D-02  0.640370D-02 -0.253450D-01
     15  0.196260D-02  0.906693D-02  0.100090D-02  0.112289D-02  0.964190D-02
     16  0.249647D-01 -0.144473D+00  0.133039D+00  0.321744D-01 -0.957751D-01
     17 -0.135333D-01  0.124452D+00 -0.239828D+00 -0.526006D-01 -0.965679D-01
     18  0.178669D-02  0.490681D-01 -0.630242D-01 -0.569875D-01  0.437415D-01
     19  0.631969D-01  0.668615D-02 -0.549665D-02  0.236749D-01  0.507641D-02
     20 -0.512685D-01  0.303494D-02  0.252234D-03 -0.318398D-01  0.236899D-02
     21 -0.101156D+00 -0.100903D-01  0.125188D-01 -0.217561D-01 -0.531293D-02
               11            12            13            14            15 
     11  0.283364D+00
     12 -0.919607D-01  0.869486D-01
     13  0.119991D-02 -0.300402D-02  0.342538D+00
     14 -0.119886D-02 -0.774791D-02  0.353659D-01  0.518265D-01
     15 -0.177235D-02  0.309143D-02  0.773862D-01  0.109221D-01  0.789827D-01
     16 -0.100492D+00  0.336232D-01 -0.321549D+00 -0.352068D-01 -0.575851D-01
     17 -0.269832D+00  0.851778D-01 -0.275564D-01 -0.585586D-01 -0.457769D-02
     18  0.950694D-01 -0.765063D-01 -0.706286D-01 -0.593006D-02 -0.650509D-01
     19  0.599190D-02  0.129657D-01 -0.277410D-03 -0.173853D-02 -0.353171D-01
     20  0.140257D-01  0.324187D-01 -0.744500D-02  0.105827D-01 -0.285631D-02
     21 -0.137173D-01 -0.187914D-01 -0.961371D-04 -0.185269D-02 -0.251413D-01
               16            17            18            19            20 
     16  0.625945D+00
     17 -0.352575D-02  0.633238D+00
     18 -0.263464D-01 -0.246746D-01  0.377299D+00
     19 -0.666040D-01  0.940873D-02 -0.280830D-02  0.211216D+00
     20  0.515702D-02 -0.101893D+00 -0.695192D-01 -0.168295D+00  0.192497D+00
     21 -0.181730D-01  0.161108D-03 -0.155667D+00 -0.621971D-01  0.169931D+00
               21 
     21  0.330635D+00
 Leave Link  716 at Wed Mar  6 18:38:20 2024, MaxMem=   104857600 cpu:               0.0 elap:               0.0
 (Enter /opt/g16/l123.exe)
 IRC-IRC-IRC-IRC-IRC-IRC-IRC-IRC-IRC-IRC-IRC-IRC-IRC-IRC-IRC-IRC-IRC-IRC
 Pt  4 Step number   1 out of a maximum of  10
 Using modified Bulirsch-Stoer corrector integration.
   Using distance weighted interpolants to fit PES.
 PreDWI: IReCr0= 2 IReCr1= 1 IReCr2= 1 IReCr3= 1
 Modified Bulirsch-Stoer Extrapolation Cycles:
    EPS =    0.000010000000000
    Cycle     1 NS=    48
      PEZero:  N= 2 I= 1 D=  1.66D-04 Err=  1.50D-06
    Cycle     2 NS=    64 Truncation Error =  0.000001505
 BS completed in    2 cycles and     112 integration steps.
 Maximum DWI energy   std dev =  0.000000265 at pt    26
 Maximum DWI gradient std dev =  0.002868177 at pt    16
 SUMMARY OF CORRECTOR INTEGRATION:
   Predictor End Point Energy =  -116.074511
   Old End Point Energy       =  -116.074511
   Corrected End Point Energy =  -116.074511
   Predictor End-Start Dist.  =     0.031931
   Old End-Start Dist.        =     0.031931
   New End-Start Dist.        =     0.031931
   New End-Old End Dist.      =     0.000087
 CORRECTOR INTEGRATION CONVERGENCE:
   Recorrection delta-x convergence threshold:    0.010000
   Delta-x Convergence Met
 Point Number:   4          Path Number:   1
                    CURRENT STRUCTURE
                Cartesian Coordinates (Ang):                
 ---------------------------------------------------------------------
 Center     Atomic                     Coordinates (Angstroms)
 Number     Number                        X           Y           Z
 ---------------------------------------------------------------------
      1          1                   -0.410201   -0.993219    1.117494
      2          1                   -0.493661    0.748207    1.012907
      3          1                    0.574404   -0.865691   -1.083322
      4          1                    0.398499    0.932207   -1.168284
      5          1                   -1.053109   -0.129051   -1.073962
      6          6                   -0.009492    0.000618   -0.797953
      7          8                    0.069122    0.018890    0.673985
 ---------------------------------------------------------------------
   CHANGE IN THE REACTION COORDINATE =    0.03193
   NET REACTION COORDINATE UP TO THIS POINT =    0.12772
  # OF POINTS ALONG THE PATH =   4
  # OF STEPS =   1

 Calculating another point on the path.
 Point Number  5 in FORWARD path direction.
 Using LQA Reaction Path Following.
   LQA: T_Est iteration completed in    3 iterations.
 IRC-IRC-IRC-IRC-IRC-IRC-IRC-IRC-IRC-IRC-IRC-IRC-IRC-IRC-IRC-IRC-IRC-IRC
 Leave Link  123 at Wed Mar  6 18:38:20 2024, MaxMem=   104857600 cpu:               0.0 elap:               0.0
 (Enter /opt/g16/l202.exe)
                          Input orientation:                          
 ---------------------------------------------------------------------
 Center     Atomic      Atomic             Coordinates (Angstroms)
 Number     Number       Type             X           Y           Z
 ---------------------------------------------------------------------
      1          1           0       -0.416953   -1.006006    1.123040
      2          1           0       -0.493013    0.746011    1.011195
      3          1           0        0.574037   -0.865579   -1.082679
      4          1           0        0.398501    0.931436   -1.169944
      5          1           0       -1.052741   -0.129619   -1.074414
      6          6           0       -0.009526    0.000893   -0.797148
      7          8           0        0.069532    0.019702    0.673235
 ---------------------------------------------------------------------
                    Distance matrix (angstroms):
                    1          2          3          4          5
     1  H    0.000000
     2  H    1.757231   0.000000
     3  H    2.422184   2.849584   0.000000
     4  H    3.110695   2.363588   1.807676   0.000000
     5  H    2.449711   2.330191   1.785528   1.800296   0.000000
     6  C    2.206120   2.014713   1.082981   1.082300   1.087293
     7  O    1.221094   0.978876   2.030143   2.082495   2.082323
                    6          7
     6  C    0.000000
     7  O    1.472627   0.000000
 Symmetry turned off by external request.
 Stoichiometry    CH5O(2)
 Framework group  C1[X(CH5O)]
 Deg. of freedom    15
 Full point group                 C1      NOp   1
 Rotational constants (GHZ):          94.6636849          21.9689154          20.9345406
 Leave Link  202 at Wed Mar  6 18:38:20 2024, MaxMem=   104857600 cpu:               0.0 elap:               0.0
 (Enter /opt/g16/l301.exe)
 Standard basis: STO-3G (5D, 7F)
 Ernie: Thresh=  0.10000D-02 Tol=  0.10000D-05 Strict=F.
    15 basis functions,    45 primitive gaussians,    15 cartesian basis functions
    10 alpha electrons        9 beta electrons
       nuclear repulsion energy        45.4174641936 Hartrees.
 IExCor=    0 DFT=F Ex=HF Corr=None ExCW=0 ScaHFX=  1.000000
 ScaDFX=  1.000000  1.000000  1.000000  1.000000 ScalE2=  1.000000  1.000000
 IRadAn=      5 IRanWt=     -1 IRanGd=            0 ICorTp=0 IEmpDi=  4
 NAtoms=    7 NActive=    7 NUniq=    7 SFac= 1.00D+00 NAtFMM=   60 NAOKFM=F Big=F
 Integral buffers will be    131072 words long.
 Raffenetti 2 integral format.
 Two-electron integral symmetry is turned off.
 Leave Link  301 at Wed Mar  6 18:38:20 2024, MaxMem=   104857600 cpu:               0.1 elap:               0.1
 (Enter /opt/g16/l402.exe)
 External calculation of energy, first and second derivatives.
 Running external command "python3 -u ../pes/h5co_pes.py R"
         input file       "/home/jh-li/scratch/g16/Gau-256986.EIn"
         output file      "/home/jh-li/scratch/g16/Gau-256986.EOu"
         message file     "/home/jh-li/scratch/g16/Gau-256986.EMs"
         fchk file        "/home/jh-li/scratch/g16/Gau-256986.EFC"
         mat. el file     "/home/jh-li/scratch/g16/Gau-256986.EUF"
 Recovered energy= -116.074790174     dipole=      0.000000000000      0.000000000000      0.000000000000
 NRF= 0 NRA=   0 NVA=   0 HaveQM=F NVQ=       0
 Convergence limit is  0.750E-04 MaxStp= 10000 StMxLn= 3.00D-04 StpMin= 1.00D-06.
 Convergence criteria             0.00011250 0.00007500 0.00045000 0.00030000
  Step  NS  ND Rises OKQ   Scale  Max. Force  RMS Force Max. Disp.  RMS Disp.     Energy   Flag
     1   0   0   F    T  1.00D+00 0.00000000 0.00000000 0.00000000 0.00000000 -116.0747902 ====
 Running external command "python3 -u ../pes/h5co_pes.py R"
         input file       "/home/jh-li/scratch/g16/Gau-256986.EIn"
         output file      "/home/jh-li/scratch/g16/Gau-256986.EOu"
         message file     "/home/jh-li/scratch/g16/Gau-256986.EMs"
         fchk file        "/home/jh-li/scratch/g16/Gau-256986.EFC"
         mat. el file     "/home/jh-li/scratch/g16/Gau-256986.EUF"
 Recovered energy= -116.074790174     dipole=      0.000000000000      0.000000000000      0.000000000000
 Energy=    -116.074790     NIter=   0.
 Dipole moment=       0.000000       0.000000       0.000000
 Leave Link  402 at Wed Mar  6 18:38:22 2024, MaxMem=   104857600 cpu:               0.0 elap:               2.0
 (Enter /opt/g16/l716.exe)
 Dipole        = 0.00000000D+00 0.00000000D+00 0.00000000D+00
 -------------------------------------------------------------------
 Center     Atomic                   Forces (Hartrees/Bohr)
 Number     Number              X              Y              Z
 -------------------------------------------------------------------
      1        1          -0.003950519   -0.007490162    0.003251652
      2        1           0.000316553   -0.001194473   -0.000947758
      3        1          -0.000209830    0.000066160    0.000347868
      4        1          -0.000000890   -0.000445066   -0.000952680
      5        1           0.000211035   -0.000323852   -0.000266784
      6        6          -0.000229380    0.001865299    0.005553773
      7        8           0.003860262    0.007499104   -0.006967988
 -------------------------------------------------------------------
 Cartesian Forces:  Max     0.007499104 RMS     0.003382523
 Force constants in Cartesian coordinates: 
                1             2             3             4             5 
      1 -0.819871D-02
      2 -0.186985D-01 -0.292784D-01
      3  0.765545D-02  0.180001D-01  0.675688D-02
      4  0.158042D-01  0.223794D-01 -0.166899D-01  0.133592D+00
      5 -0.136832D-01 -0.413427D-01  0.194534D-01 -0.158391D+00  0.216375D+00
      6 -0.123766D-01 -0.186286D-01  0.140299D-01 -0.740419D-01  0.907360D-01
      7 -0.280209D-02 -0.179870D-02 -0.196333D-02  0.804692D-03 -0.184728D-02
      8  0.270219D-02 -0.198747D-03 -0.292453D-02  0.255526D-02  0.360967D-03
      9 -0.751910D-03  0.100318D-03  0.164813D-03 -0.363900D-02  0.455408D-02
     10 -0.349833D-05  0.635129D-03 -0.418091D-03 -0.990021D-03 -0.154037D-02
     11 -0.390964D-02 -0.182134D-02  0.291107D-02  0.278248D-03 -0.536466D-02
     12 -0.351659D-02 -0.771060D-02  0.456319D-02  0.245920D-02 -0.845843D-03
     13  0.140987D-02  0.246814D-02  0.863839D-03  0.530870D-03  0.175244D-02
     14 -0.168737D-02 -0.341687D-02 -0.183818D-02  0.185738D-02 -0.311545D-02
     15 -0.546252D-03 -0.654941D-02  0.508791D-02 -0.275153D-02  0.375136D-02
     16  0.358828D-02 -0.405914D-02  0.108331D-01 -0.128841D-02  0.529648D-02
     17  0.822096D-02  0.158239D-01  0.995119D-02 -0.144006D-01  0.194168D-01
     18  0.222949D-01  0.480134D-01 -0.249848D-01 -0.167343D-01  0.217895D-01
     19 -0.979826D-02 -0.919056D-03 -0.287133D-03 -0.148465D+00  0.168427D+00
     20  0.270546D-01  0.602229D-01 -0.455592D-01  0.145731D+00 -0.186328D+00
     21 -0.127604D-01 -0.332524D-01 -0.561170D-02  0.111394D+00 -0.139414D+00
                6             7             8             9            10 
      6  0.891286D-01
      7 -0.102347D-02  0.144865D+00
      8 -0.479345D-02 -0.141535D+00  0.254401D+00
      9 -0.466130D-03 -0.420795D-01  0.661950D-01  0.740958D-01
     10 -0.199478D-02  0.869331D-02  0.145678D-01 -0.599584D-02  0.922002D-01
     11  0.274408D-02 -0.866198D-02 -0.190480D-01  0.657131D-02  0.105569D+00
     12 -0.349010D-02 -0.299024D-02 -0.879637D-02  0.422104D-02 -0.399497D-01
     13 -0.102914D-02 -0.136444D-01 -0.576185D-02 -0.338546D-02 -0.907424D-02
     14 -0.172157D-04  0.266935D-01  0.431080D-02  0.645178D-02 -0.252492D-01
     15  0.197857D-02  0.908618D-02  0.992337D-03  0.999910D-03  0.967388D-02
     16  0.253379D-01 -0.144588D+00  0.132842D+00  0.320205D-01 -0.959107D-01
     17 -0.142554D-01  0.124358D+00 -0.239951D+00 -0.521874D-01 -0.964598D-01
     18  0.201431D-02  0.489458D-01 -0.628899D-01 -0.566781D-01  0.438239D-01
     19  0.651361D-01  0.668162D-02 -0.537321D-02  0.238232D-01  0.508915D-02
     20 -0.557888D-01  0.278776D-02  0.143393D-03 -0.316751D-01  0.247986D-02
     21 -0.103190D+00 -0.996432D-02  0.121969D-01 -0.223481D-01 -0.513361D-02
               11            12            13            14            15 
     11  0.282634D+00
     12 -0.923875D-01  0.879572D-01
     13  0.953135D-03 -0.298773D-02  0.342204D+00
     14 -0.116517D-02 -0.780078D-02  0.355148D-01  0.518636D-01
     15 -0.186657D-02  0.309482D-02  0.775632D-01  0.111171D-01  0.794620D-01
     16 -0.100123D+00  0.339621D-01 -0.321439D+00 -0.354361D-01 -0.574948D-01
     17 -0.269319D+00  0.854232D-01 -0.274694D-01 -0.586860D-01 -0.458882D-02
     18  0.953310D-01 -0.768068D-01 -0.706784D-01 -0.593815D-02 -0.650181D-01
     19  0.589800D-02  0.130167D-01  0.415682D-04 -0.169074D-02 -0.355296D-01
     20  0.141012D-01  0.321145D-01 -0.745291D-02  0.102064D-01 -0.285198D-02
     21 -0.132838D-01 -0.195560D-01 -0.366173D-03 -0.197669D-02 -0.256207D-01
               16            17            18            19            20 
     16  0.627146D+00
     17 -0.394706D-02  0.634018D+00
     18 -0.261413D-01 -0.249030D-01  0.384310D+00
     19 -0.675474D-01  0.969201D-02 -0.150835D-02  0.214007D+00
     20  0.542482D-02 -0.101325D+00 -0.713852D-01 -0.176042D+00  0.202977D+00
     21 -0.185148D-01  0.566886D-03 -0.162766D+00 -0.646463D-01  0.175144D+00
               21 
     21  0.339052D+00
 Leave Link  716 at Wed Mar  6 18:38:22 2024, MaxMem=   104857600 cpu:               0.0 elap:               0.0
 (Enter /opt/g16/l123.exe)
 IRC-IRC-IRC-IRC-IRC-IRC-IRC-IRC-IRC-IRC-IRC-IRC-IRC-IRC-IRC-IRC-IRC-IRC
 Pt  5 Step number   1 out of a maximum of  10
 Using modified Bulirsch-Stoer corrector integration.
   Using distance weighted interpolants to fit PES.
 PreDWI: IReCr0= 2 IReCr1= 1 IReCr2= 1 IReCr3= 1
 Modified Bulirsch-Stoer Extrapolation Cycles:
    EPS =    0.000010000000000
    Cycle     1 NS=    48
      PEZero:  N= 2 I= 1 D=  1.66D-04 Err=  1.47D-06
    Cycle     2 NS=    64 Truncation Error =  0.000001467
 BS completed in    2 cycles and     112 integration steps.
 Maximum DWI energy   std dev =  0.000000244 at pt    34
 Maximum DWI gradient std dev =  0.001985996 at pt    16
 SUMMARY OF CORRECTOR INTEGRATION:
   Predictor End Point Energy =  -116.074790
   Old End Point Energy       =  -116.074790
   Corrected End Point Energy =  -116.074790
   Predictor End-Start Dist.  =     0.031932
   Old End-Start Dist.        =     0.031932
   New End-Start Dist.        =     0.031932
   New End-Old End Dist.      =     0.000065
 CORRECTOR INTEGRATION CONVERGENCE:
   Recorrection delta-x convergence threshold:    0.010000
   Delta-x Convergence Met
 Point Number:   5          Path Number:   1
                    CURRENT STRUCTURE
                Cartesian Coordinates (Ang):                
 ---------------------------------------------------------------------
 Center     Atomic                     Coordinates (Angstroms)
 Number     Number                        X           Y           Z
 ---------------------------------------------------------------------
      1          1                   -0.416955   -1.006011    1.123043
      2          1                   -0.493030    0.746036    1.011209
      3          1                    0.574038   -0.865580   -1.082683
      4          1                    0.398501    0.931437   -1.169941
      5          1                   -1.052742   -0.129618   -1.074414
      6          6                   -0.009526    0.000893   -0.797149
      7          8                    0.069533    0.019702    0.673234
 ---------------------------------------------------------------------
   CHANGE IN THE REACTION COORDINATE =    0.03193
   NET REACTION COORDINATE UP TO THIS POINT =    0.15966
  # OF POINTS ALONG THE PATH =   5
  # OF STEPS =   1

 Calculating another point on the path.
 Point Number  6 in FORWARD path direction.
 Using LQA Reaction Path Following.
   LQA: T_Est iteration completed in    3 iterations.
 IRC-IRC-IRC-IRC-IRC-IRC-IRC-IRC-IRC-IRC-IRC-IRC-IRC-IRC-IRC-IRC-IRC-IRC
 Leave Link  123 at Wed Mar  6 18:38:22 2024, MaxMem=   104857600 cpu:               0.0 elap:               0.0
 (Enter /opt/g16/l202.exe)
                          Input orientation:                          
 ---------------------------------------------------------------------
 Center     Atomic      Atomic             Coordinates (Angstroms)
 Number     Number       Type             X           Y           Z
 ---------------------------------------------------------------------
      1          1           0       -0.423720   -1.018847    1.128616
      2          1           0       -0.492489    0.743999    1.009599
      3          1           0        0.573682   -0.865460   -1.082120
[...]
 (Enter /opt/g16/l202.exe)
                          Input orientation:                          
 ---------------------------------------------------------------------
 Center     Atomic      Atomic             Coordinates (Angstroms)
 Number     Number       Type             X           Y           Z
 ---------------------------------------------------------------------
      1          1           0       -0.334737   -0.864382    1.070993
      2          1           0       -0.506219    0.792954    1.058861
      3          1           0        0.582698   -0.863033   -1.117547
      4          1           0        0.399378    0.946072   -1.130805
      5          1           0       -1.058375   -0.115061   -1.078071
      6          6           0       -0.008949   -0.006900   -0.816093
      7          8           0        0.064446    0.011628    0.687935
 ---------------------------------------------------------------------
                    Distance matrix (angstroms):
                    1          2          3          4          5
     1  H    0.000000
     2  H    1.666228   0.000000
     3  H    2.373056   2.943600   0.000000
     4  H    2.943567   2.374487   1.818417   0.000000
     5  H    2.388224   2.386597   1.803924   1.803837   0.000000
     6  C    2.098216   2.098213   1.083459   1.083481   1.087027
     7  O    1.036086   1.036202   2.072048   2.072000   2.096559
                    6          7
     6  C    0.000000
     7  O    1.505933   0.000000
 Symmetry turned off by external request.
 Stoichiometry    CH5O(2)
 Framework group  C1[X(CH5O)]
 Deg. of freedom    15
 Full point group                 C1      NOp   1
 Rotational constants (GHZ):          98.6138824          21.3897699          20.5164497
 Leave Link  202 at Wed Mar  6 18:42:04 2024, MaxMem=   104857600 cpu:               0.0 elap:               0.0
 (Enter /opt/g16/l301.exe)
 Standard basis: STO-3G (5D, 7F)
 Ernie: Thresh=  0.10000D-02 Tol=  0.10000D-05 Strict=F.
    15 basis functions,    45 primitive gaussians,    15 cartesian basis functions
    10 alpha electrons        9 beta electrons
       nuclear repulsion energy        45.3961779185 Hartrees.
 IExCor=    0 DFT=F Ex=HF Corr=None ExCW=0 ScaHFX=  1.000000
 ScaDFX=  1.000000  1.000000  1.000000  1.000000 ScalE2=  1.000000  1.000000
 IRadAn=      5 IRanWt=     -1 IRanGd=            0 ICorTp=0 IEmpDi=  4
 NAtoms=    7 NActive=    7 NUniq=    7 SFac= 1.00D+00 NAtFMM=   60 NAOKFM=F Big=F
 Integral buffers will be    131072 words long.
 Raffenetti 2 integral format.
 Two-electron integral symmetry is turned off.
 Leave Link  301 at Wed Mar  6 18:42:04 2024, MaxMem=   104857600 cpu:               0.1 elap:               0.1
 (Enter /opt/g16/l402.exe)
 External calculation of energy, first and second derivatives.
 Running external command "python3 -u ../pes/h5co_pes.py R"
         input file       "/home/jh-li/scratch/g16/Gau-256986.EIn"
         output file      "/home/jh-li/scratch/g16/Gau-256986.EOu"
         message file     "/home/jh-li/scratch/g16/Gau-256986.EMs"
         fchk file        "/home/jh-li/scratch/g16/Gau-256986.EFC"
         mat. el file     "/home/jh-li/scratch/g16/Gau-256986.EUF"
 Recovered energy= -116.074529179     dipole=      0.000000000000      0.000000000000      0.000000000000
 NRF= 0 NRA=   0 NVA=   0 HaveQM=F NVQ=       0
 Convergence limit is  0.750E-04 MaxStp= 10000 StMxLn= 3.00D-04 StpMin= 1.00D-06.
 Convergence criteria             0.00011250 0.00007500 0.00045000 0.00030000
  Step  NS  ND Rises OKQ   Scale  Max. Force  RMS Force Max. Disp.  RMS Disp.     Energy   Flag
     1   0   0   F    T  1.00D+00 0.00000000 0.00000000 0.00000000 0.00000000 -116.0745292 ====
 Running external command "python3 -u ../pes/h5co_pes.py R"
         input file       "/home/jh-li/scratch/g16/Gau-256986.EIn"
         output file      "/home/jh-li/scratch/g16/Gau-256986.EOu"
         message file     "/home/jh-li/scratch/g16/Gau-256986.EMs"
         fchk file        "/home/jh-li/scratch/g16/Gau-256986.EFC"
         mat. el file     "/home/jh-li/scratch/g16/Gau-256986.EUF"
 Recovered energy= -116.074529179     dipole=      0.000000000000      0.000000000000      0.000000000000
 Energy=    -116.074529     NIter=   0.
 Dipole moment=       0.000000       0.000000       0.000000
 Leave Link  402 at Wed Mar  6 18:42:06 2024, MaxMem=   104857600 cpu:               0.0 elap:               2.0
 (Enter /opt/g16/l716.exe)
 Dipole        = 0.00000000D+00 0.00000000D+00 0.00000000D+00
 -------------------------------------------------------------------
 Center     Atomic                   Forces (Hartrees/Bohr)
 Number     Number              X              Y              Z
 -------------------------------------------------------------------
      1        1          -0.000004906   -0.000003663    0.000013846
      2        1           0.000012581   -0.000015528    0.000009657
      3        1           0.000003859    0.000001188   -0.000006659
      4        1          -0.000003013   -0.000002953    0.000002794
      5        1          -0.000003095   -0.000003752   -0.000008151
      6        6           0.000003383    0.000001799   -0.000129488
      7        8          -0.000014333    0.000019918    0.000141720
 -------------------------------------------------------------------
 Cartesian Forces:  Max     0.000141720 RMS     0.000042743
 Force constants in Cartesian coordinates: 
                1             2             3             4             5 
      1  0.313447D-01
      2  0.434124D-01  0.121669D+00
      3 -0.230083D-01 -0.391958D-01  0.494215D-01
      4  0.216892D-01  0.313890D-01 -0.230525D-01  0.524765D-01
      5 -0.143441D-01 -0.612168D-01  0.234526D-01 -0.581867D-01  0.101159D+00
      6 -0.175533D-01 -0.264211D-01  0.212804D-01 -0.296184D-01  0.327007D-01
      7 -0.246444D-02  0.132533D-03 -0.193402D-02  0.122392D-03 -0.189498D-02
      8  0.203094D-02 -0.212876D-02 -0.353322D-02  0.363268D-02 -0.625253D-03
      9  0.253761D-02  0.464831D-02 -0.470987D-02 -0.552715D-02  0.723913D-02
     10  0.429860D-03  0.210346D-02 -0.158675D-02 -0.203253D-02 -0.145253D-03
     11 -0.346410D-02 -0.995719D-03  0.374761D-02 -0.196288D-02 -0.258376D-02
     12 -0.385735D-02 -0.814224D-02  0.259327D-02  0.345451D-02 -0.405367D-02
     13  0.205338D-02  0.790642D-03 -0.338039D-04  0.162591D-02  0.492006D-03
     14 -0.156226D-02 -0.459010D-02 -0.104211D-02  0.282977D-02 -0.407478D-02
     15 -0.149446D-03 -0.468489D-02  0.218201D-02 -0.112291D-02  0.461103D-02
     16  0.881942D-03 -0.698063D-02  0.161189D-01  0.254935D-02  0.289093D-02
     17  0.107498D-01  0.236708D-01  0.102022D-01 -0.149402D-01  0.214185D-01
     18  0.836095D-02  0.321266D-01 -0.998296D-02  0.150314D-01 -0.302325D-01
     19 -0.539391D-01 -0.708484D-01  0.334951D-01 -0.764327D-01  0.711901D-01
     20 -0.368469D-01 -0.764578D-01  0.638649D-02  0.372718D-01 -0.541249D-01
     21  0.336753D-01  0.416566D-01 -0.607969D-01  0.408376D-01 -0.337040D-01
                6             7             8             9            10 
      6  0.483201D-01
      7 -0.778037D-03  0.144366D+00
      8 -0.394237D-02 -0.141399D+00  0.247137D+00
      9  0.255167D-02 -0.466214D-01  0.689399D-01  0.689413D-01
     10 -0.260553D-02  0.792133D-02  0.150561D-01 -0.420380D-02  0.930528D-01
     11  0.304629D-02 -0.998425D-02 -0.171618D-01  0.730515D-02  0.109467D+00
     12 -0.469247D-02 -0.250871D-02 -0.765060D-02  0.536380D-02 -0.333938D-01
     13 -0.251941D-03 -0.125876D-01 -0.697516D-02 -0.397593D-02 -0.853475D-02
     14  0.110145D-02  0.244381D-01  0.331764D-02  0.600348D-02 -0.267190D-01
     15  0.209284D-02  0.874077D-02  0.169811D-02  0.254594D-02  0.928063D-02
     16  0.178585D-01 -0.143803D+00  0.134512D+00  0.386338D-01 -0.961096D-01
     17 -0.716878D-02  0.127768D+00 -0.236375D+00 -0.635286D-01 -0.985633D-01
     18 -0.943045D-02  0.523356D-01 -0.696332D-01 -0.620733D-01  0.386955D-01
     19  0.329479D-01  0.645616D-02 -0.686100D-02  0.191493D-01  0.527783D-02
     20  0.666791D-03  0.935941D-03  0.584997D-02 -0.305988D-01 -0.119693D-02
     21 -0.601355D-01 -0.922367D-02  0.141017D-01 -0.126369D-01 -0.617985D-02
               11            12            13            14            15 
     11  0.296362D+00
     12 -0.800386D-01  0.711282D-01
     13  0.452564D-02 -0.277412D-02  0.346747D+00
     14 -0.865472D-03 -0.665246D-02  0.309350D-01  0.498239D-01
     15  0.147724D-03  0.264083D-02  0.747491D-01  0.773559D-02  0.706900D-01
     16 -0.105505D+00  0.265759D-01 -0.326459D+00 -0.280613D-01 -0.601372D-01
     17 -0.282023D+00  0.730165D-01 -0.281373D-01 -0.566049D-01 -0.613469D-02
     18  0.817628D-01 -0.641498D-01 -0.696021D-01 -0.710996D-02 -0.615913D-01
     19  0.692847D-02  0.124959D-01 -0.281627D-02 -0.185874D-02 -0.313590D-01
     20  0.728458D-02  0.335153D-01 -0.162878D-02  0.129882D-01 -0.337081D-02
     21 -0.159500D-01 -0.129011D-01  0.186971D-02 -0.381506D-04 -0.185800D-01
               16            17            18            19            20 
     16  0.618620D+00
     17 -0.132629D-02  0.629291D+00
     18 -0.261780D-01 -0.542302D-02  0.254147D+00
     19 -0.557197D-01  0.444657D-02 -0.186418D-01  0.177176D+00
     20  0.447068D-02 -0.994027D-01 -0.148635D-02 -0.300685D-02  0.203959D+00
     21 -0.128781D-01 -0.963713D-03 -0.468879D-01 -0.480872D-01 -0.511251D-02
               21 
     21  0.211987D+00
 Leave Link  716 at Wed Mar  6 18:42:06 2024, MaxMem=   104857600 cpu:               0.0 elap:               0.0
 (Enter /opt/g16/l123.exe)
 IRC-IRC-IRC-IRC-IRC-IRC-IRC-IRC-IRC-IRC-IRC-IRC-IRC-IRC-IRC-IRC-IRC-IRC
 Pt109 Step number   1 out of a maximum of  10
 Using modified Bulirsch-Stoer corrector integration.
   Using distance weighted interpolants to fit PES.
 PreDWI: IReCr0= 2 IReCr1= 1 IReCr2= 1 IReCr3= 1
 Modified Bulirsch-Stoer Extrapolation Cycles:
    EPS =    0.000010000000000
    Cycle     1 NS=    48
      PEZero:  N= 2 I= 1 D=  1.64D-04 Err=  1.89D-05
    Cycle     2 NS=    64 Truncation Error =  0.000018914
      PEZero:  N= 3 I= 2 D=  1.64D-04 Err=  1.27D-05
      PEZero:  N= 3 I= 1 D=  3.29D-04 Err=  2.57D-07
    Cycle     3 NS=    96 Truncation Error =  0.000000257
 BS completed in    3 cycles and     208 integration steps.
 Maximum DWI energy   std dev =  0.000000442 at pt    49
 Maximum DWI gradient std dev =  0.037659295 at pt    54
 SUMMARY OF CORRECTOR INTEGRATION:
   Predictor End Point Energy =  -116.074529
   Old End Point Energy       =  -116.074529
   Corrected End Point Energy =  -116.074529
   Predictor End-Start Dist.  =     0.031542
   Old End-Start Dist.        =     0.031542
   New End-Start Dist.        =     0.031126
   New End-Old End Dist.      =     0.000766
 CORRECTOR INTEGRATION CONVERGENCE:
   Recorrection delta-x convergence threshold:    0.010000
   Delta-x Convergence Met
 Point Number:   9          Path Number:   2
                    CURRENT STRUCTURE
                Cartesian Coordinates (Ang):                
 ---------------------------------------------------------------------
 Center     Atomic                     Coordinates (Angstroms)
 Number     Number                        X           Y           Z
 ---------------------------------------------------------------------
      1          1                   -0.334781   -0.864466    1.070916
      2          1                   -0.506330    0.792786    1.058728
      3          1                    0.582572   -0.863124   -1.117523
      4          1                    0.399423    0.946015   -1.130873
      5          1                   -1.058404   -0.115008   -1.078000
      6          6                   -0.008950   -0.006899   -0.816094
      7          8                    0.064474    0.011658    0.687900
 ---------------------------------------------------------------------
   CHANGE IN THE REACTION COORDINATE =    0.03113
   NET REACTION COORDINATE UP TO THIS POINT =    0.28606
  # OF POINTS ALONG THE PATH = 109
  # OF STEPS =   1

 PES minimum detected on this side of the pathway.
    Magnitude of the gradient =      0.0000583
 Calculation of REVERSE path complete.
 Reaction path calculation complete.
 
 Energies reported relative to the TS energy of        -116.074045
 --------------------------------------------------------------------------
    Summary of reaction path following
 --------------------------------------------------------------------------
                        Energy    RxCoord
   1                   -0.00048  -0.28606
   2                   -0.00048  -0.25494
   3                   -0.00045  -0.22324
   4                   -0.00041  -0.19144
   5                   -0.00034  -0.15959
   6                   -0.00025  -0.12770
   7                   -0.00016  -0.09578
   8                   -0.00008  -0.06386
   9                   -0.00002  -0.03193
  10                    0.00000   0.00000
  11                   -0.00003   0.03194
  12                   -0.00011   0.06386
  13                   -0.00025   0.09579
  14                   -0.00047   0.12772
  15                   -0.00075   0.15966
  16                   -0.00109   0.19159
  17                   -0.00150   0.22352
  18                   -0.00198   0.25545
  19                   -0.00251   0.28739
  20                   -0.00310   0.31932
  21                   -0.00373   0.35125
  22                   -0.00441   0.38318
  23                   -0.00512   0.41512
  24                   -0.00587   0.44705
  25                   -0.00663   0.47898
  26                   -0.00742   0.51092
  27                   -0.00822   0.54285
  28                   -0.00903   0.57478
  29                   -0.00984   0.60672
  30                   -0.01065   0.63865
  31                   -0.01146   0.67059
  32                   -0.01225   0.70252
  33                   -0.01304   0.73445
  34                   -0.01381   0.76639
  35                   -0.01456   0.79832
  36                   -0.01530   0.83025
  37                   -0.01601   0.86219
  38                   -0.01670   0.89412
  39                   -0.01737   0.92606
  40                   -0.01802   0.95799
  41                   -0.01864   0.98992
  42                   -0.01923   1.02186
  43                   -0.01980   1.05379
  44                   -0.02035   1.08572
  45                   -0.02087   1.11766
  46                   -0.02137   1.14959
  47                   -0.02184   1.18153
  48                   -0.02229   1.21346
  49                   -0.02272   1.24539
  50                   -0.02312   1.27733
  51                   -0.02350   1.30926
  52                   -0.02386   1.34120
  53                   -0.02421   1.37313
  54                   -0.02453   1.40506
  55                   -0.02484   1.43700
  56                   -0.02512   1.46893
  57                   -0.02540   1.50086
  58                   -0.02565   1.53280
  59                   -0.02589   1.56473
  60                   -0.02612   1.59667
  61                   -0.02634   1.62860
  62                   -0.02654   1.66053
  63                   -0.02673   1.69247
  64                   -0.02691   1.72440
  65                   -0.02707   1.75634
  66                   -0.02723   1.78827
  67                   -0.02738   1.82020
  68                   -0.02752   1.85214
  69                   -0.02765   1.88407
  70                   -0.02778   1.91600
  71                   -0.02789   1.94794
  72                   -0.02800   1.97987
  73                   -0.02811   2.01181
  74                   -0.02820   2.04374
  75                   -0.02829   2.07567
  76                   -0.02838   2.10761
  77                   -0.02846   2.13954
  78                   -0.02854   2.17147
  79                   -0.02861   2.20341
  80                   -0.02868   2.23534
  81                   -0.02874   2.26728
  82                   -0.02880   2.29921
  83                   -0.02886   2.33114
  84                   -0.02891   2.36308
  85                   -0.02896   2.39501
  86                   -0.02901   2.42695
  87                   -0.02905   2.45888
  88                   -0.02909   2.49081
  89                   -0.02913   2.52275
  90                   -0.02917   2.55468
  91                   -0.02920   2.58661
  92                   -0.02924   2.61855
  93                   -0.02927   2.65048
  94                   -0.02930   2.68242
  95                   -0.02932   2.71435
  96                   -0.02935   2.74628
  97                   -0.02937   2.77822
  98                   -0.02939   2.81015
  99                   -0.02941   2.84208
 100                   -0.02943   2.87402
 101                   -0.02945   2.90595
 102                   -0.02946   2.93788
 103                   -0.02948   2.96981
 104                   -0.02949   3.00175
 105                   -0.02950   3.03368
 106                   -0.02952   3.06561
 107                   -0.02953   3.09754
 108                   -0.02954   3.12947
 109                   -0.02955   3.16141
 110                   -0.02955   3.19334
 --------------------------------------------------------------------------
 
 Total number of points:                  109
 Total number of gradient calculations:   110
 Total number of Hessian calculations:    110
 IRC-IRC-IRC-IRC-IRC-IRC-IRC-IRC-IRC-IRC-IRC-IRC-IRC-IRC-IRC-IRC-IRC-IRC
 Leave Link  123 at Wed Mar  6 18:42:06 2024, MaxMem=   104857600 cpu:               0.0 elap:               0.0
 (Enter /opt/g16/l202.exe)
                          Input orientation:                          
 ---------------------------------------------------------------------
 Center     Atomic      Atomic             Coordinates (Angstroms)
 Number     Number       Type             X           Y           Z
 ---------------------------------------------------------------------
      1          1           0       -0.334737   -0.864382    1.070993
      2          1           0       -0.506219    0.792954    1.058861
      3          1           0        0.582698   -0.863033   -1.117547
      4          1           0        0.399378    0.946072   -1.130805
      5          1           0       -1.058375   -0.115061   -1.078071
      6          6           0       -0.008949   -0.006900   -0.816093
      7          8           0        0.064446    0.011628    0.687935
 ---------------------------------------------------------------------
                    Distance matrix (angstroms):
                    1          2          3          4          5
     1  H    0.000000
     2  H    1.666228   0.000000
     3  H    2.373056   2.943600   0.000000
     4  H    2.943567   2.374487   1.818417   0.000000
     5  H    2.388224   2.386597   1.803924   1.803837   0.000000
     6  C    2.098216   2.098213   1.083459   1.083481   1.087027
     7  O    1.036086   1.036202   2.072048   2.072000   2.096559
                    6          7
     6  C    0.000000
     7  O    1.505933   0.000000
 Symmetry turned off by external request.
 Stoichiometry    CH5O(2)
 Framework group  C1[X(CH5O)]
 Deg. of freedom    15
 Full point group                 C1      NOp   1
 Rotational constants (GHZ):          98.6138824          21.3897699          20.5164497
 Leave Link  202 at Wed Mar  6 18:42:06 2024, MaxMem=   104857600 cpu:               0.0 elap:               0.0
 (Enter /opt/g16/l601.exe)
 Leave Link  601 at Wed Mar  6 18:42:06 2024, MaxMem=   104857600 cpu:               0.0 elap:               0.0
 (Enter /opt/g16/l9999.exe)

 This type of calculation cannot be archived.


 OF ALL THE WONDERS OF THE UNIVERSE, THE GREATEST IS MAN.

                                    -- ARISTOTLE
 Job cpu time:       0 days  0 hours  0 minutes 22.0 seconds.
 Elapsed time:       0 days  0 hours  3 minutes 53.4 seconds.
 File lengths (MBytes):  RWF=      6 Int=      0 D2E=      0 Chk=      2 Scr=      1
 Normal termination of Gaussian 16 at Wed Mar  6 18:42:06 2024.
