 Entering Gaussian System, Link 0=g16
 Initial command:
 /opt/g16/l1.exe "/home/jh-li/scratch/g16/Gau-232475.inp" -scrdir="/home/jh-li/scratch/g16/"
 Entering Link 1 = /opt/g16/l1.exe PID=    232478.
  
 Copyright (c) 1988-2019, Gaussian, Inc.  All Rights Reserved.
  
 This is part of the Gaussian(R) 16 program.  It is based on
 the Gaussian(R) 09 system (copyright 2009, Gaussian, Inc.),
 the Gaussian(R) 03 system (copyright 2003, Gaussian, Inc.),
 the Gaussian(R) 98 system (copyright 1998, Gaussian, Inc.),
 the Gaussian(R) 94 system (copyright 1995, Gaussian, Inc.),
 the Gaussian 92(TM) system (copyright 1992, Gaussian, Inc.),
 the Gaussian 90(TM) system (copyright 1990, Gaussian, Inc.),
 the Gaussian 88(TM) system (copyright 1988, Gaussian, Inc.),
 the Gaussian 86(TM) system (copyright 1986, Carnegie Mellon
 University), and the Gaussian 82(TM) system (copyright 1983,
 Carnegie Mellon University). Gaussian is a federally registered
 trademark of Gaussian, Inc.
  
 This software contains proprietary and confidential information,
 including trade secrets, belonging to Gaussian, Inc.
  
 This software is provided under written license and may be
 used, copied, transmitted, or stored only in accord with that
 written license.
  
 The following legend is applicable only to US Government
 contracts under FAR:
  
                    RESTRICTED RIGHTS LEGEND
  
 Use, reproduction and disclosure by the US Government is
 subject to restrictions as set forth in subparagraphs (a)
 and (c) of the Commercial Computer Software - Restricted
 Rights clause in FAR 52.227-19.
  
 Gaussian, Inc.
 340 Quinnipiac St., Bldg. 40, Wallingford CT 06492
  
  
 ---------------------------------------------------------------
 Warning -- This program may not be used in any manner that
 competes with the business of Gaussian, Inc. or will provide
 assistance to any competitor of Gaussian, Inc.  The licensee
 of this program is prohibited from giving any competitor of
 Gaussian, Inc. access to this program.  By using this program,
 the user acknowledges that Gaussian, Inc. is engaged in the
 business of creating and licensing software in the field of
 computational chemistry and represents and warrants to the
 licensee that it is not a competitor of Gaussian, Inc. and that
 it will not use this program in any manner prohibited above.
 ---------------------------------------------------------------
  

 Cite this work as:
 Gaussian 16, Revision C.01,
 M. J. Frisch, G. W. Trucks, H. B. Schlegel, G. E. Scuseria, 
 M. A. Robb, J. R. Cheeseman, G. Scalmani, V. Barone, 
 G. A. Petersson, H. Nakatsuji, X. Li, M. Caricato, A. V. Marenich, 
 J. Bloino, B. G. Janesko, R. Gomperts, B. Mennucci, H. P. Hratchian, 
 J. V. Ortiz, A. F. Izmaylov, J. L. Sonnenberg, D. Williams-Young, 
 F. Ding, F. Lipparini, F. Egidi, J. Goings, B. Peng, A. Petrone, 
 T. Henderson, D. Ranasinghe, V. G. Zakrzewski, J. Gao, N. Rega, 
 G. Zheng, W. Liang, M. Hada, M. Ehara, K. Toyota, R. Fukuda, 
 J. Hasegawa, M. Ishida, T. Nakajima, Y. Honda, O. Kitao, H. Nakai, 
 T. Vreven, K. Throssell, J. A. Montgomery, Jr., J. E. Peralta, 
 F. Ogliaro, M. J. Bearpark, J. J. Heyd, E. N. Brothers, K. N. Kudin, 
 V. N. Staroverov, T. A. Keith, R. Kobayashi, J. Normand, 
 K. Raghavachari, A. P. Rendell, J. C. Burant, S. S. Iyengar, 
 J. Tomasi, M. Cossi, J. M. Millam, M. Klene, C. Adamo, R. Cammi, 
 J. W. Ochterski, R. L. Martin, K. Morokuma, O. Farkas, 
 J. B. Foresman, and D. J. Fox, Gaussian, Inc., Wallingford CT, 2019.
 
 ******************************************
 Gaussian 16:  ES64L-G16RevC.01  3-Jul-2019
                 6-Mar-2024 
 ******************************************
 %nproc=1
 Will use up to    1 processors via shared memory.
 %chk=ts3-opt-freq.chk
 ----------------------------------------------------------------------
 #p external="python3 -u ../pes/h5co_pes.py" opt=(nomicro,ts,noeigen,ca
 lcall)
 ----------------------------------------------------------------------
 1/5=1,10=4,11=1,18=20,26=1,38=1/1,3;
 2/9=110,12=2,17=6,18=5,40=1/2;
 3/11=9,25=1,30=1,41=9900000,43=2,71=2,140=1/1;
 4/20=17,22=2,24=3,113=1,114=1/2;
 6/7=2,8=2,9=2,10=2,18=1/1;
 7/25=1,44=-1/16;
 1/5=1,10=4,11=1,18=20,26=1/3(3);
 2/9=110/2;
 7/8=1,9=1,25=1,44=-1/16;
 99//99;
 2/9=110/2;
 3/11=9,25=1,30=1,41=9900000,43=2,71=2,140=1/1;
 4/16=2,20=17,22=2,24=3,113=1,114=1/2;
 7/25=1,44=-1/16;
 1/5=1,10=4,11=1,18=20,26=1/3(-4);
 2/9=110/2;
 6/7=2,8=2,9=2,10=2,18=1/1;
 7/8=1,9=1,25=1,44=-1/16;
 99//99;
 Leave Link    1 at Wed Mar  6 17:36:48 2024, MaxMem=           0 cpu:               0.0 elap:               0.0
 (Enter /opt/g16/l101.exe)
 ----------------------
 H + CH3OH -> H2O + CH3
 ----------------------
 Symbolic Z-matrix:
 Charge =  0 Multiplicity = 2
 H                    -0.35843  -0.95182   1.14021 
 H                    -0.5134    0.73719   1.03704 
 H                     0.57172  -0.86802  -1.10178 
 H                     0.4206    0.91681  -1.16609 
 H                    -1.05324  -0.11549  -1.10411 
 C                    -0.01507  -0.00653  -0.80317 
 O                     0.07007   0.02262   0.67822 
 
 Add virtual bond connecting atoms O7         and H1         Dist= 2.19D+00.
 ITRead=  0  0  0  0  0  0  0
 MicOpt= -1 -1 -1 -1 -1 -1 -1
 NAtoms=      7 NQM=        7 NQMF=       0 NMMI=      0 NMMIF=      0
                NMic=       0 NMicF=      0.
                    Isotopes and Nuclear Properties:
 (Nuclear quadrupole moments (NQMom) in fm**2, nuclear magnetic moments (NMagM)
  in nuclear magnetons)

  Atom         1           2           3           4           5           6           7
 IAtWgt=           1           1           1           1           1          12          16
 AtmWgt=   1.0078250   1.0078250   1.0078250   1.0078250   1.0078250  12.0000000  15.9949146
 NucSpn=           1           1           1           1           1           0           0
 AtZEff=  -0.0000000  -0.0000000  -0.0000000  -0.0000000  -0.0000000  -0.0000000  -0.0000000
 NQMom=    0.0000000   0.0000000   0.0000000   0.0000000   0.0000000   0.0000000   0.0000000
 NMagM=    2.7928460   2.7928460   2.7928460   2.7928460   2.7928460   0.0000000   0.0000000
 AtZNuc=   1.0000000   1.0000000   1.0000000   1.0000000   1.0000000   6.0000000   8.0000000
 Leave Link  101 at Wed Mar  6 17:36:48 2024, MaxMem=   104857600 cpu:               0.2 elap:               0.2
 (Enter /opt/g16/l103.exe)

 GradGradGradGradGradGradGradGradGradGradGradGradGradGradGradGradGradGrad
 Berny optimization.
 Initialization pass.
                           ----------------------------
                           !    Initial Parameters    !
                           ! (Angstroms and Degrees)  !
 --------------------------                            --------------------------
 ! Name  Definition              Value          Derivative Info.                !
 --------------------------------------------------------------------------------
 ! R1    R(1,7)                  1.1604         calculate D2E/DX2 analytically  !
 ! R2    R(2,7)                  0.9898         calculate D2E/DX2 analytically  !
 ! R3    R(3,6)                  1.0843         calculate D2E/DX2 analytically  !
 ! R4    R(4,6)                  1.0835         calculate D2E/DX2 analytically  !
 ! R5    R(5,6)                  1.0864         calculate D2E/DX2 analytically  !
 ! R6    R(6,7)                  1.4841         calculate D2E/DX2 analytically  !
 ! A1    A(3,6,4)              111.5442         calculate D2E/DX2 analytically  !
 ! A2    A(3,6,5)              111.1732         calculate D2E/DX2 analytically  !
 ! A3    A(3,6,7)              105.0373         calculate D2E/DX2 analytically  !
 ! A4    A(4,6,5)              112.1431         calculate D2E/DX2 analytically  !
 ! A5    A(4,6,7)              107.1286         calculate D2E/DX2 analytically  !
 ! A6    A(5,6,7)              109.4683         calculate D2E/DX2 analytically  !
 ! A7    A(1,7,2)              104.1357         calculate D2E/DX2 analytically  !
 ! A8    A(1,7,6)              111.0827         calculate D2E/DX2 analytically  !
 ! A9    A(2,7,6)              110.0106         calculate D2E/DX2 analytically  !
 ! D1    D(3,6,7,1)            -59.9647         calculate D2E/DX2 analytically  !
 ! D2    D(3,6,7,2)           -174.7333         calculate D2E/DX2 analytically  !
 ! D3    D(4,6,7,1)           -178.6946         calculate D2E/DX2 analytically  !
 ! D4    D(4,6,7,2)             66.5368         calculate D2E/DX2 analytically  !
 ! D5    D(5,6,7,1)             59.4838         calculate D2E/DX2 analytically  !
 ! D6    D(5,6,7,2)            -55.2848         calculate D2E/DX2 analytically  !
 --------------------------------------------------------------------------------
 Trust Radius=3.00D-01 FncErr=1.00D-07 GrdErr=1.00D-07 EigMax=2.50D+02 EigMin=1.00D-04
 Number of steps in this run=     31 maximum allowed number of steps=    100.
 Search for a saddle point of order  1.
 GradGradGradGradGradGradGradGradGradGradGradGradGradGradGradGradGradGrad

 Leave Link  103 at Wed Mar  6 17:36:48 2024, MaxMem=   104857600 cpu:               0.0 elap:               0.0
 (Enter /opt/g16/l202.exe)
                          Input orientation:                          
 ---------------------------------------------------------------------
 Center     Atomic      Atomic             Coordinates (Angstroms)
 Number     Number       Type             X           Y           Z
 ---------------------------------------------------------------------
      1          1           0       -0.358431   -0.951822    1.140214
      2          1           0       -0.513396    0.737195    1.037039
      3          1           0        0.571725   -0.868018   -1.101781
      4          1           0        0.420599    0.916809   -1.166090
      5          1           0       -1.053240   -0.115487   -1.104108
      6          6           0       -0.015067   -0.006525   -0.803173
      7          8           0        0.070073    0.022622    0.678221
 ---------------------------------------------------------------------
                    Distance matrix (angstroms):
                    1          2          3          4          5
     1  H    0.000000
     2  H    1.699246   0.000000
     3  H    2.428735   2.885956   0.000000
     4  H    3.068828   2.399663   1.792368   0.000000
     5  H    2.493832   2.367067   1.790760   1.800467   0.000000
     6  C    2.188205   2.046419   1.084279   1.083540   1.086388
     7  O    1.160428   0.989849   2.052632   2.079404   2.111303
                    6          7
     6  C    0.000000
     7  O    1.484125   0.000000
 Stoichiometry    CH5O(2)
 Framework group  C1[X(CH5O)]
 Deg. of freedom    15
 Full point group                 C1      NOp   1
 Largest Abelian subgroup         C1      NOp   1
 Largest concise Abelian subgroup C1      NOp   1
                         Standard orientation:                         
 ---------------------------------------------------------------------
 Center     Atomic      Atomic             Coordinates (Angstroms)
 Number     Number       Type             X           Y           Z
 ---------------------------------------------------------------------
      1          1           0       -1.197028    0.920682    0.307804
      2          1           0       -1.075425   -0.769790    0.430098
      3          1           0        1.080786    0.888307   -0.534379
      4          1           0        1.165103   -0.898389   -0.419538
      5          1           0        1.030190    0.099943    1.072713
      6          6           0        0.771924    0.009972    0.021313
      7          8           0       -0.704396   -0.037573   -0.123072
 ---------------------------------------------------------------------
 Rotational constants (GHZ):          97.3482139          21.5816402          20.7085543
 Leave Link  202 at Wed Mar  6 17:36:48 2024, MaxMem=   104857600 cpu:               0.0 elap:               0.0
 (Enter /opt/g16/l301.exe)
 Standard basis: STO-3G (5D, 7F)
 Ernie: Thresh=  0.10000D-02 Tol=  0.10000D-05 Strict=F.
 There are    15 symmetry adapted cartesian basis functions of A   symmetry.
 There are    15 symmetry adapted basis functions of A   symmetry.
    15 basis functions,    45 primitive gaussians,    15 cartesian basis functions
    10 alpha electrons        9 beta electrons
       nuclear repulsion energy        45.3528871952 Hartrees.
 IExCor=    0 DFT=F Ex=HF Corr=None ExCW=0 ScaHFX=  1.000000
 ScaDFX=  1.000000  1.000000  1.000000  1.000000 ScalE2=  1.000000  1.000000
 IRadAn=      5 IRanWt=     -1 IRanGd=            0 ICorTp=0 IEmpDi=  4
 NAtoms=    7 NActive=    7 NUniq=    7 SFac= 1.00D+00 NAtFMM=   60 NAOKFM=F Big=F
 Integral buffers will be    131072 words long.
 Raffenetti 2 integral format.
 Two-electron integral symmetry is turned on.
 Leave Link  301 at Wed Mar  6 17:36:48 2024, MaxMem=   104857600 cpu:               0.0 elap:               0.0
 (Enter /opt/g16/l402.exe)
 External calculation of energy, first and second derivatives.
 Running external command "python3 -u ../pes/h5co_pes.py R"
         input file       "/home/jh-li/scratch/g16/Gau-232478.EIn"
         output file      "/home/jh-li/scratch/g16/Gau-232478.EOu"
         message file     "/home/jh-li/scratch/g16/Gau-232478.EMs"
         fchk file        "/home/jh-li/scratch/g16/Gau-232478.EFC"
         mat. el file     "/home/jh-li/scratch/g16/Gau-232478.EUF"
 Recovered energy= -116.073795160     dipole=      0.000000000000      0.000000000000      0.000000000000
 Energy=    -116.073795     NIter=   0.
 Dipole moment=       0.000000       0.000000       0.000000
 Leave Link  402 at Wed Mar  6 17:36:50 2024, MaxMem=   104857600 cpu:               0.0 elap:               1.7
 (Enter /opt/g16/l601.exe)
 Leave Link  601 at Wed Mar  6 17:36:50 2024, MaxMem=   104857600 cpu:               0.1 elap:               0.1
 (Enter /opt/g16/l716.exe)
 Dipole        = 0.00000000D+00 0.00000000D+00 0.00000000D+00
 ***** Axes restored to original set *****
 -------------------------------------------------------------------
 Center     Atomic                   Forces (Hartrees/Bohr)
 Number     Number              X              Y              Z
 -------------------------------------------------------------------
      1        1          -0.000359689   -0.001985029   -0.000320251
      2        1           0.000010161    0.000940383   -0.001716442
      3        1          -0.001072660   -0.000815150    0.002471642
      4        1          -0.001406157    0.000214765    0.000089306
      5        1          -0.000503901   -0.000241641    0.002743388
      6        6           0.003953973    0.002895031   -0.000758015
      7        8          -0.000625529   -0.001026188   -0.002488814
 -------------------------------------------------------------------
 Cartesian Forces:  Max     0.003953973 RMS     0.001662257
 Force constants in Cartesian coordinates: 
                1             2             3             4             5 
      1 -0.127340D-02
      2 -0.156448D-01 -0.132080D-01
      3  0.630903D-02  0.178203D-01  0.118482D-01
      4  0.182644D-01  0.286496D-01 -0.217463D-01  0.117418D+00
      5 -0.129897D-01 -0.523991D-01  0.240230D-01 -0.131569D+00  0.177802D+00
      6 -0.145080D-01 -0.232526D-01  0.194014D-01 -0.651056D-01  0.745259D-01
      7 -0.281235D-02 -0.199688D-02 -0.152425D-02  0.746736D-03 -0.187139D-02
      8  0.280457D-02 -0.440246D-03 -0.263437D-02  0.266435D-02  0.438456D-03
      9  0.134171D-03  0.207726D-02 -0.124930D-02 -0.502388D-02  0.491769D-02
     10 -0.277258D-03  0.167960D-03 -0.443227D-03 -0.117779D-02 -0.110470D-02
     11 -0.413988D-02 -0.234364D-02  0.314559D-02 -0.470727D-04 -0.499971D-02
     12 -0.380454D-02 -0.814473D-02  0.478983D-02  0.302630D-02 -0.249522D-02
     13  0.188861D-02  0.205247D-02  0.801151D-03  0.259168D-03  0.282794D-02
     14 -0.150345D-02 -0.370831D-02 -0.122916D-02  0.203079D-02 -0.308002D-02
     15 -0.149119D-03 -0.636530D-02  0.495152D-02 -0.165009D-02  0.344428D-02
     16  0.344162D-02 -0.300735D-02  0.108737D-01  0.101449D-02  0.288565D-02
     17  0.948820D-02  0.204336D-01  0.756698D-02 -0.165770D-01  0.203991D-01
     18  0.213837D-01  0.490756D-01 -0.258980D-01 -0.100745D-01  0.126256D-01
     19 -0.192336D-01 -0.102142D-01  0.572510D-02 -0.136535D+00  0.141831D+00
     20  0.219748D-01  0.516381D-01 -0.486884D-01  0.114868D+00 -0.138177D+00
     21 -0.936244D-02 -0.312401D-01 -0.138420D-01  0.100570D+00 -0.117011D+00
                6             7             8             9            10 
      6  0.789288D-01
      7 -0.108156D-02  0.143241D+00
      8 -0.385020D-02 -0.139789D+00  0.250707D+00
      9  0.768823D-03 -0.429888D-01  0.674230D-01  0.720551D-01
     10 -0.209112D-02  0.766823D-02  0.154500D-01 -0.425296D-02  0.974749D-01
     11  0.214936D-02 -0.106243D-01 -0.191025D-01  0.789469D-02  0.110525D+00
     12 -0.458651D-02 -0.173037D-02 -0.881502D-02  0.430256D-02 -0.402467D-01
     13 -0.712312D-04 -0.118985D-01 -0.657573D-02 -0.439111D-02 -0.820103D-02
     14  0.840351D-04  0.263266D-01  0.356799D-02  0.656728D-02 -0.251442D-01
     15  0.184533D-02  0.924958D-02  0.169510D-03  0.167744D-02  0.991584D-02
     16  0.227221D-01 -0.143255D+00  0.131497D+00  0.337881D-01 -0.100992D+00
     17 -0.958659D-02  0.124956D+00 -0.236173D+00 -0.581044D-01 -0.101867D+00
     18  0.159287D-02  0.485335D-01 -0.654169D-01 -0.598818D-01  0.438794D-01
     19  0.601421D-01  0.631792D-02 -0.605589D-02  0.227270D-01  0.550777D-02
     20 -0.400788D-01  0.299371D-02  0.101992D-02 -0.307653D-01  0.197413D-02
     21 -0.979537D-01 -0.104462D-01  0.131019D-01 -0.176863D-01 -0.675419D-02
               11            12            13            14            15 
     11  0.278936D+00
     12 -0.882538D-01  0.836172D-01
     13  0.328328D-02 -0.374003D-02  0.342129D+00
     14 -0.915969D-03 -0.746594D-02  0.300375D-01  0.495163D-01
     15 -0.408722D-03  0.294926D-02  0.843484D-01  0.990799D-02  0.778651D-01
     16 -0.105232D+00  0.331110D-01 -0.323425D+00 -0.300801D-01 -0.693190D-01
     17 -0.264311D+00  0.825332D-01 -0.245036D-01 -0.552400D-01 -0.520634D-02
     18  0.904340D-01 -0.728391D-01 -0.785828D-01 -0.651137D-02 -0.702010D-01
     19  0.623821D-02  0.133782D-01 -0.721270D-03 -0.166464D-02 -0.323922D-01
     20  0.127528D-01  0.326383D-01 -0.711735D-02  0.985668D-02 -0.153731D-02
     21 -0.149395D-01 -0.182506D-01  0.161726D-02 -0.135510D-02 -0.191050D-01
               16            17            18            19            20 
     16  0.627220D+00
     17 -0.134676D-02  0.614351D+00
     18 -0.185887D-01 -0.184885D-01  0.340553D+00
     19 -0.640428D-01  0.984538D-02 -0.655624D-02  0.208714D+00
     20  0.528282D-02 -0.994839D-01 -0.617044D-01 -0.139989D+00  0.162430D+00
     21 -0.125902D-01  0.129222D-02 -0.113255D+00 -0.630204D-01  0.150131D+00
               21 
     21  0.280071D+00
 FormGI is forming the generalized inverse of G from B-inverse, IUseBI=4.
 Force constants in internal coordinates: 
                1             2             3             4             5 
      1 -0.310791D-01
      2  0.772003D-01  0.322635D+00
      3  0.313661D-02 -0.950466D-03  0.368211D+00
      4  0.555168D-03 -0.973686D-03  0.175779D-02  0.364638D+00
      5 -0.353688D-03 -0.258133D-02 -0.217311D-02 -0.605521D-03  0.369862D+00
      6  0.440330D-01 -0.219718D-01 -0.734111D-02 -0.600254D-02  0.193793D-02
      7  0.538008D-02  0.181698D-02  0.775968D-02  0.632646D-02 -0.314400D-02
      8  0.500269D-02  0.177979D-02  0.793769D-02 -0.309674D-02  0.408258D-02
      9  0.765147D-02 -0.118353D-01 -0.667755D-03 -0.630436D-02 -0.573179D-02
     10  0.711251D-02  0.632253D-03 -0.162184D-02  0.600927D-02  0.361519D-02
     11 -0.164315D-01  0.131324D-01 -0.859776D-02 -0.396194D-03 -0.740364D-02
     12 -0.100592D-01 -0.611022D-02 -0.575894D-02 -0.349585D-02  0.780427D-02
     13  0.137651D-03 -0.551816D-02 -0.280838D-02 -0.339412D-02  0.879857D-05
     14  0.115716D-02  0.130116D-01 -0.783938D-03 -0.262434D-03 -0.463738D-02
     15  0.100390D-01  0.702621D-02  0.361953D-02  0.369935D-02  0.729153D-03
     16  0.233438D-02  0.610382D-02 -0.175862D-02  0.349960D-02 -0.617455D-02
     17 -0.445249D-02  0.112868D-02 -0.287926D-04  0.559370D-02 -0.393254D-02
     18  0.145050D-03  0.367619D-02 -0.625729D-02 -0.439000D-03  0.381632D-02
     19 -0.664183D-02 -0.129895D-02 -0.452746D-02  0.165510D-02  0.605833D-02
     20  0.737347D-02 -0.150715D-02  0.427816D-02 -0.543397D-02 -0.604115D-03
     21  0.586597D-03 -0.648229D-02  0.600799D-02 -0.333987D-02  0.163790D-02
                6             7             8             9            10 
      6  0.185703D+00
      7 -0.162094D-01  0.475475D-01
      8 -0.211374D-01  0.566086D-02  0.529335D-01
      9  0.254746D-01 -0.360091D-01 -0.390096D-01  0.119648D+00
     10 -0.189463D-01  0.664232D-02  0.740387D-02  0.368646D-02  0.522033D-01
     11  0.251219D-01 -0.351700D-01  0.341337D-02 -0.133474D-01 -0.384019D-01
     12  0.112871D-01  0.621167D-02 -0.368797D-01 -0.267265D-01 -0.383629D-01
     13 -0.406713D-02 -0.198355D-02  0.118215D-02 -0.580724D-03  0.266715D-03
     14 -0.409991D-02  0.326611D-02 -0.306320D-02  0.227667D-02  0.459834D-02
     15  0.128117D-01 -0.237537D-03 -0.664392D-03  0.437212D-02 -0.443593D-02
     16  0.376060D-02  0.954289D-02 -0.111975D-01  0.349934D-02  0.327951D-03
     17  0.349615D-02  0.102089D-01 -0.104703D-01  0.297674D-03 -0.303862D-04
     18 -0.225498D-02 -0.104288D-01  0.128818D-03 -0.844159D-02  0.910781D-02
     19 -0.251942D-02 -0.976280D-02  0.855999D-03 -0.116433D-01  0.874948D-02
     20 -0.115824D-02 -0.722934D-03  0.105647D-01  0.107604D-01 -0.840072D-02
     21 -0.142268D-02 -0.568982D-04  0.112919D-01  0.755872D-02 -0.875905D-02
               11            12            13            14            15 
     11  0.117237D+00
     12 -0.274742D-01  0.128993D+00
     13 -0.750965D-03  0.182831D-02  0.253435D-01
     14 -0.100334D-02 -0.645169D-02 -0.217862D-01  0.718365D-01
     15  0.577595D-02 -0.408209D-02 -0.310934D-01 -0.151250D-01  0.973652D-01
     16  0.101960D-01 -0.118606D-01 -0.171931D-02  0.603912D-02  0.736643D-02
     17  0.826872D-02 -0.793342D-02 -0.155114D-02 -0.494815D-04 -0.370118D-02
     18  0.155059D-02  0.738769D-02  0.120693D-02  0.162686D-02  0.271368D-02
     19 -0.376659D-03  0.113149D-01  0.137510D-02 -0.446174D-02 -0.835393D-02
     20 -0.719175D-02 -0.459678D-02  0.276087D-03  0.428117D-03  0.694899D-02
     21 -0.911900D-02 -0.669552D-03  0.444251D-03 -0.566048D-02 -0.411862D-02
               16            17            18            19            20 
     16  0.147703D-01
     17  0.900278D-02  0.131143D-01
     18 -0.278868D-02 -0.680890D-02  0.126701D-01
     19 -0.855617D-02 -0.269742D-02  0.864991D-02  0.145087D-01
     20 -0.247352D-02 -0.717574D-02 -0.359079D-02 -0.829302D-02  0.136159D-01
     21 -0.824101D-02 -0.306425D-02 -0.761101D-02 -0.243426D-02  0.891365D-02
               21 
     21  0.140904D-01
 Leave Link  716 at Wed Mar  6 17:36:50 2024, MaxMem=   104857600 cpu:               0.0 elap:               0.0
 (Enter /opt/g16/l103.exe)

 GradGradGradGradGradGradGradGradGradGradGradGradGradGradGradGradGradGrad
 Berny optimization.
 Red2BG is reusing G-inverse.
 Internal  Forces:  Max     0.004621057 RMS     0.001973720
 Search for a saddle point.
 Step number   1 out of a maximum of   31
 All quantities printed in internal units (Hartrees-Bohrs-Radians)
 Swapping is turned off.
 Second derivative matrix not updated -- analytic derivatives used.
 ITU=  0
     Eigenvalues ---   -0.06257   0.00131   0.01677   0.05756   0.05806
     Eigenvalues ---    0.08282   0.10794   0.11795   0.15133   0.17110
     Eigenvalues ---    0.22356   0.34252   0.36486   0.36904   0.37360
 Eigenvectors required to have negative eigenvalues:
                          R1        R6        R2        A5        D5
   1                   -0.93859   0.20615   0.20307  -0.11709   0.06498
                          A2        D4        D2        A6        A1
   1                    0.05606  -0.05234  -0.05181  -0.04835   0.04025
 RFO step:  Lambda0=9.341758963D-05 Lambda=-6.13442988D-04.
 Linear search not attempted -- option 19 set.
 Iteration  1 RMS(Cart)=  0.03089057 RMS(Int)=  0.00066527
 Iteration  2 RMS(Cart)=  0.00048732 RMS(Int)=  0.00021665
 Iteration  3 RMS(Cart)=  0.00000022 RMS(Int)=  0.00021665
 ITry= 1 IFail=0 DXMaxC= 8.39D-02 DCOld= 1.00D+10 DXMaxT= 3.00D-01 DXLimC= 3.00D+00 Rises=F
 Variable       Old X    -DE/DX   Delta X   Delta X   Delta X     New X
                                 (Linear)    (Quad)   (Total)
    R1        2.19289   0.00167   0.00000  -0.03713  -0.03713   2.15576
    R2        1.87054   0.00005   0.00000   0.00801   0.00801   1.87855
    R3        2.04899  -0.00061   0.00000  -0.00257  -0.00257   2.04642
    R4        2.04759  -0.00041   0.00000  -0.00226  -0.00226   2.04533
    R5        2.05298  -0.00025   0.00000   0.00124   0.00124   2.05422
    R6        2.80459  -0.00462   0.00000  -0.00833  -0.00833   2.79626
    A1        1.94681   0.00229   0.00000   0.03505   0.03501   1.98182
    A2        1.94034   0.00178   0.00000   0.00120   0.00053   1.94086
    A3        1.83325  -0.00289   0.00000  -0.01641  -0.01672   1.81653
    A4        1.95727   0.00106   0.00000   0.00392   0.00383   1.96109
    A5        1.86975   0.00172   0.00000   0.00950   0.00944   1.87918
    A6        1.91058  -0.00442   0.00000  -0.03614  -0.03645   1.87413
    A7        1.81751   0.00178   0.00000   0.03316   0.03302   1.85053
    A8        1.93876  -0.00146   0.00000  -0.02551  -0.02557   1.91319
    A9        1.92005  -0.00255   0.00000  -0.01957  -0.01963   1.90041
    D1       -1.04658   0.00113   0.00000  -0.01195  -0.01218  -1.05876
    D2       -3.04967   0.00132   0.00000  -0.02598  -0.02629  -3.07596
    D3       -3.11881  -0.00088   0.00000  -0.04857  -0.04851   3.11587
    D4        1.16129  -0.00068   0.00000  -0.06260  -0.06262   1.09867
    D5        1.03819  -0.00064   0.00000  -0.03805  -0.03775   1.00044
    D6       -0.96490  -0.00044   0.00000  -0.05208  -0.05186  -1.01676
         Item               Value     Threshold  Converged?
 Maximum Force            0.004621     0.000450     NO 
 RMS     Force            0.001974     0.000300     NO 
 Maximum Displacement     0.083873     0.001800     NO 
 RMS     Displacement     0.030934     0.001200     NO 
 Predicted change in Energy=-2.649497D-04
 GradGradGradGradGradGradGradGradGradGradGradGradGradGradGradGradGradGrad

 Leave Link  103 at Wed Mar  6 17:36:50 2024, MaxMem=   104857600 cpu:               0.0 elap:               0.0
 (Enter /opt/g16/l202.exe)
                          Input orientation:                          
 ---------------------------------------------------------------------
 Center     Atomic      Atomic             Coordinates (Angstroms)
 Number     Number       Type             X           Y           Z
 ---------------------------------------------------------------------
      1          1           0       -0.377849   -0.949935    1.095830
      2          1           0       -0.496347    0.751872    1.020981
      3          1           0        0.578262   -0.872066   -1.084153
      4          1           0        0.403688    0.929157   -1.161066
      5          1           0       -1.051364   -0.130448   -1.069065
      6          6           0       -0.005612   -0.005457   -0.799906
      7          8           0        0.071484    0.011649    0.677700
 ---------------------------------------------------------------------
                    Distance matrix (angstroms):
                    1          2          3          4          5
     1  H    0.000000
     2  H    1.707568   0.000000
     3  H    2.381709   2.867673   0.000000
     4  H    3.038975   2.367029   1.811297   0.000000
     5  H    2.410799   2.335556   1.790504   1.802332   0.000000
     6  C    2.150445   2.032240   1.082920   1.082343   1.087045
     7  O    1.140779   0.994085   2.035166   2.081644   2.081385
                    6          7
     6  C    0.000000
     7  O    1.479715   0.000000
 Stoichiometry    CH5O(2)
 Framework group  C1[X(CH5O)]
 Deg. of freedom    15
 Full point group                 C1      NOp   1
 RotChk:  IX=0 Diff= 1.68D-02
 Largest Abelian subgroup         C1      NOp   1
 Largest concise Abelian subgroup C1      NOp   1
                         Standard orientation:                         
 ---------------------------------------------------------------------
 Center     Atomic      Atomic             Coordinates (Angstroms)
 Number     Number       Type             X           Y           Z
 ---------------------------------------------------------------------
      1          1           0       -1.156924    0.914995    0.317710
      2          1           0       -1.056925   -0.786512    0.420980
      3          1           0        1.063138    0.885960   -0.544277
      4          1           0        1.164562   -0.915553   -0.385970
      5          1           0        0.991315    0.125446    1.075095
      6          6           0        0.769570    0.007877    0.017421
      7          8           0       -0.702824   -0.033950   -0.123508
 ---------------------------------------------------------------------
 Rotational constants (GHZ):          96.7597754          21.9067260          20.9569452
 Leave Link  202 at Wed Mar  6 17:36:50 2024, MaxMem=   104857600 cpu:               0.0 elap:               0.0
 (Enter /opt/g16/l301.exe)
 Standard basis: STO-3G (5D, 7F)
 Ernie: Thresh=  0.10000D-02 Tol=  0.10000D-05 Strict=F.
 There are    15 symmetry adapted cartesian basis functions of A   symmetry.
 There are    15 symmetry adapted basis functions of A   symmetry.
    15 basis functions,    45 primitive gaussians,    15 cartesian basis functions
    10 alpha electrons        9 beta electrons
       nuclear repulsion energy        45.5499633418 Hartrees.
 IExCor=    0 DFT=F Ex=HF Corr=None ExCW=0 ScaHFX=  1.000000
 ScaDFX=  1.000000  1.000000  1.000000  1.000000 ScalE2=  1.000000  1.000000
 IRadAn=      5 IRanWt=     -1 IRanGd=            0 ICorTp=0 IEmpDi=  4
 NAtoms=    7 NActive=    7 NUniq=    7 SFac= 1.00D+00 NAtFMM=   60 NAOKFM=F Big=F
 Integral buffers will be    131072 words long.
 Raffenetti 2 integral format.
 Two-electron integral symmetry is turned on.
 Leave Link  301 at Wed Mar  6 17:36:50 2024, MaxMem=   104857600 cpu:               0.1 elap:               0.1
 (Enter /opt/g16/l402.exe)
 External calculation of energy, first and second derivatives.
 Running external command "python3 -u ../pes/h5co_pes.py R"
         input file       "/home/jh-li/scratch/g16/Gau-232478.EIn"
         output file      "/home/jh-li/scratch/g16/Gau-232478.EOu"
         message file     "/home/jh-li/scratch/g16/Gau-232478.EMs"
         fchk file        "/home/jh-li/scratch/g16/Gau-232478.EFC"
         mat. el file     "/home/jh-li/scratch/g16/Gau-232478.EUF"
 Recovered energy= -116.074044920     dipole=      0.000000000000      0.000000000000      0.000000000000
 Energy=    -116.074045     NIter=   0.
 Dipole moment=       0.000000       0.000000       0.000000
 Leave Link  402 at Wed Mar  6 17:36:52 2024, MaxMem=   104857600 cpu:               0.0 elap:               1.7
 (Enter /opt/g16/l716.exe)
 Dipole        = 0.00000000D+00 0.00000000D+00 0.00000000D+00
 ***** Axes restored to original set *****
 -------------------------------------------------------------------
 Center     Atomic                   Forces (Hartrees/Bohr)
 Number     Number              X              Y              Z
 -------------------------------------------------------------------
      1        1          -0.000112139   -0.000203688    0.000162748
      2        1          -0.000026609    0.000071502    0.000053356
      3        1           0.000001227   -0.000107804   -0.000101357
      4        1          -0.000032229    0.000128327   -0.000028422
      5        1          -0.000046480   -0.000001492   -0.000236069
      6        6           0.000006868   -0.000060563    0.000190979
      7        8           0.000205543    0.000155376   -0.000020190
 -------------------------------------------------------------------
 Cartesian Forces:  Max     0.000236069 RMS     0.000118383
 Force constants in Cartesian coordinates: 
                1             2             3             4             5 
      1  0.126456D-02
      2 -0.120076D-01 -0.559761D-02
      3  0.354261D-02  0.117973D-01  0.190418D-01
      4  0.205948D-01  0.305111D-01 -0.212267D-01  0.105166D+00
      5 -0.169410D-01 -0.554738D-01  0.238494D-01 -0.123159D+00  0.176518D+00
      6 -0.156677D-01 -0.243434D-01  0.180818D-01 -0.582360D-01  0.697490D-01
      7 -0.308021D-02 -0.194136D-02 -0.173323D-02  0.907886D-03 -0.222205D-02
      8  0.278470D-02 -0.162002D-03 -0.377696D-02  0.298201D-02  0.554472D-04
      9  0.474396D-03  0.215647D-02 -0.168686D-02 -0.491299D-02  0.597852D-02
     10  0.796309D-04  0.956333D-03 -0.673411D-03 -0.128385D-02 -0.127260D-02
     11 -0.412427D-02 -0.204853D-02  0.362245D-02 -0.216382D-03 -0.501010D-02
     12 -0.394970D-02 -0.855000D-02  0.434364D-02  0.342567D-02 -0.267898D-02
     13  0.195815D-02  0.274563D-02  0.116904D-03  0.701725D-03  0.157045D-02
     14 -0.182974D-02 -0.420685D-02 -0.174397D-02  0.248197D-02 -0.386369D-02
     15 -0.456109D-03 -0.651481D-02  0.443804D-02 -0.218029D-02  0.417918D-02
     16  0.293825D-02 -0.552527D-02  0.134304D-01  0.000000D+00  0.518270D-02
     17  0.970547D-02  0.196620D-01  0.108163D-01 -0.161606D-01  0.223683D-01
     18  0.200844D-01  0.468380D-01 -0.222714D-01 -0.766494D-02  0.787638D-02
     19 -0.237570D-01 -0.147326D-01  0.653881D-02 -0.126095D+00  0.136851D+00
     20  0.223985D-01  0.477915D-01 -0.445582D-01  0.103585D+00 -0.134617D+00
     21 -0.402688D-02 -0.214105D-01 -0.219438D-01  0.907925D-01 -0.108927D+00
                6             7             8             9            10 
      6  0.744749D-01
      7 -0.107278D-02  0.144352D+00
      8 -0.483734D-02 -0.141604D+00  0.253963D+00
      9  0.966039D-03 -0.423962D-01  0.658621D-01  0.716805D-01
     10 -0.231265D-02  0.832840D-02  0.145889D-01 -0.538167D-02  0.926951D-01
     11  0.292647D-02 -0.904477D-02 -0.189028D-01  0.661060D-02  0.107287D+00
     12 -0.443939D-02 -0.272414D-02 -0.845708D-02  0.481328D-02 -0.388411D-01
     13 -0.824891D-03 -0.136086D-01 -0.651748D-02 -0.352996D-02 -0.929818D-02
     14  0.199066D-03  0.265029D-01  0.382453D-02  0.624102D-02 -0.257098D-01
     15  0.186304D-02  0.893490D-02  0.110020D-02  0.157934D-02  0.957410D-02
     16  0.233607D-01 -0.143522D+00  0.133693D+00  0.327825D-01 -0.955435D-01
     17 -0.108734D-01  0.124857D+00 -0.239888D+00 -0.543185D-01 -0.974720D-01
     18 -0.593281D-03  0.492208D-01 -0.635118D-01 -0.578585D-01  0.435733D-01
     19  0.547590D-01  0.663144D-02 -0.593025D-02  0.229564D-01  0.502646D-02
     20 -0.328311D-01  0.344764D-02  0.112741D-02 -0.325196D-01  0.162344D-02
     21 -0.903540D-01 -0.102178D-01  0.135995D-01 -0.195077D-01 -0.593267D-02
               11            12            13            14            15 
     11  0.286197D+00
     12 -0.904977D-01  0.830632D-01
     13  0.223290D-02 -0.308059D-02  0.344441D+00
     14 -0.130917D-02 -0.751686D-02  0.345009D-01  0.514791D-01
     15 -0.139504D-02  0.296676D-02  0.763988D-01  0.992358D-02  0.769595D-01
     16 -0.102434D+00  0.325298D-01 -0.322673D+00 -0.339968D-01 -0.575463D-01
     17 -0.271801D+00  0.842536D-01 -0.278205D-01 -0.579066D-01 -0.446662D-02
     18  0.939298D-01 -0.751035D-01 -0.697867D-01 -0.586556D-02 -0.644564D-01
     19  0.630270D-02  0.126340D-01 -0.149258D-02 -0.194730D-02 -0.347231D-01
     20  0.128893D-01  0.334438D-01 -0.670744D-02  0.119780D-01 -0.282199D-02
     21 -0.151751D-01 -0.156620D-01  0.686352D-03 -0.123978D-02 -0.233692D-01
               16            17            18            19            20 
     16  0.621714D+00
     17 -0.151829D-02  0.630546D+00
     18 -0.275398D-01 -0.234200D-01  0.349072D+00
     19 -0.629498D-01  0.840337D-02 -0.789082D-02  0.202643D+00
     20  0.459801D-02 -0.103000D+00 -0.558318D-01 -0.128957D+00  0.163882D+00
     21 -0.170171D-01 -0.198539D-02 -0.128722D+00 -0.542702D-01  0.135115D+00
               21 
     21  0.299541D+00
 FormGI is forming the generalized inverse of G from B-inverse, IUseBI=4.
 Force constants in internal coordinates: 
                1             2             3             4             5 
      1 -0.175022D-01
      2  0.815568D-01  0.304692D+00
      3  0.376210D-02 -0.702525D-03  0.371398D+00
      4  0.168555D-03 -0.790498D-03  0.383148D-02  0.367924D+00
      5  0.701625D-03 -0.121576D-02 -0.819331D-03  0.115185D-02  0.368754D+00
      6  0.402603D-01 -0.177042D-01 -0.577118D-02 -0.563387D-02  0.501929D-02
      7  0.570734D-02  0.268025D-02  0.693069D-02  0.490309D-02 -0.399370D-02
      8  0.519544D-02  0.179041D-02  0.782025D-02 -0.381659D-02  0.441292D-02
      9  0.820736D-02 -0.132882D-01 -0.378811D-03 -0.512959D-02 -0.530250D-02
     10  0.646645D-02  0.160181D-02 -0.199647D-02  0.554056D-02  0.404282D-02
     11 -0.168732D-01  0.143230D-01 -0.874956D-02 -0.269683D-03 -0.816047D-02
     12 -0.107838D-01 -0.844966D-02 -0.499837D-02 -0.241573D-02  0.850726D-02
     13 -0.151194D-02 -0.582221D-02 -0.366816D-02 -0.413505D-02 -0.342544D-03
     14  0.438005D-02  0.118800D-01  0.680771D-03  0.992509D-03 -0.321344D-02
     15  0.100541D-01  0.875739D-02  0.462294D-02  0.450246D-02  0.113581D-02
     16  0.232301D-02  0.616924D-02 -0.201116D-02  0.293827D-02 -0.652208D-02
     17 -0.389687D-02  0.170336D-02 -0.583671D-03  0.481990D-02 -0.498041D-02
     18 -0.407298D-03  0.308639D-02 -0.560100D-02  0.754977D-04  0.478337D-02
     19 -0.662718D-02 -0.137950D-02 -0.417351D-02  0.195712D-02  0.632504D-02
     20  0.739503D-02 -0.207438D-02  0.447227D-02 -0.500407D-02 -0.244202D-03
     21  0.117515D-02 -0.654027D-02  0.589977D-02 -0.312245D-02  0.129747D-02
                6             7             8             9            10 
      6  0.204623D+00
      7 -0.162248D-01  0.483199D-01
      8 -0.232946D-01  0.585996D-02  0.524519D-01
      9  0.280753D-01 -0.388190D-01 -0.383845D-01  0.126351D+00
     10 -0.199538D-01  0.694161D-02  0.774513D-02  0.228989D-02  0.527953D-01
     11  0.205159D-01 -0.351857D-01  0.310814D-02 -0.150126D-01 -0.366776D-01
     12  0.191359D-01  0.495763D-02 -0.398439D-01 -0.255546D-01 -0.432240D-01
     13 -0.385176D-02 -0.206701D-02  0.158100D-02 -0.817232D-03  0.408496D-03
     14 -0.245887D-02  0.360574D-02 -0.431835D-02  0.276391D-02  0.470129D-02
     15  0.130774D-01  0.699164D-03 -0.422408D-03  0.385925D-02 -0.475457D-02
     16  0.412734D-02  0.929397D-02 -0.118547D-01  0.419288D-02  0.727650D-03
     17  0.277560D-02  0.939183D-02 -0.111343D-01  0.149329D-02  0.311505D-03
     18 -0.163569D-02 -0.934707D-02 -0.142338D-03 -0.950167D-02  0.919743D-02
     19 -0.298743D-02 -0.924921D-02  0.578026D-03 -0.122013D-01  0.878128D-02
     20 -0.130875D-03 -0.722047D-03  0.113047D-01  0.105286D-01 -0.878659D-02
     21 -0.148262D-02 -0.624190D-03  0.120251D-01  0.782898D-02 -0.920273D-02
               11            12            13            14            15 
     11  0.119232D+00
     12 -0.279252D-01  0.144163D+00
     13 -0.592387D-03  0.152009D-02  0.246357D-01
     14 -0.886993D-03 -0.661086D-02 -0.231588D-01  0.792671D-01
     15  0.484648D-02 -0.356374D-02 -0.308764D-01 -0.147521D-01  0.101154D+00
     16  0.974127D-02 -0.122936D-01 -0.206003D-02  0.736064D-02  0.792177D-02
     17  0.822858D-02 -0.848417D-02 -0.152318D-02 -0.292231D-03 -0.358553D-02
     18  0.721698D-03  0.874122D-02  0.103804D-02  0.218536D-02  0.276968D-02
     19 -0.790988D-03  0.125506D-01  0.157489D-02 -0.546752D-02 -0.873762D-02
     20 -0.661052D-02 -0.527998D-02  0.290639D-04  0.806533D-03  0.771734D-02
     21 -0.812320D-02 -0.147058D-02  0.565909D-03 -0.684634D-02 -0.378995D-02
               16            17            18            19            20 
     16  0.149142D-01
     17  0.890241D-02  0.128881D-01
     18 -0.269695D-02 -0.668758D-02  0.126955D-01
     19 -0.870874D-02 -0.270190D-02  0.870488D-02  0.147117D-01
     20 -0.209719D-02 -0.688856D-02 -0.355691D-02 -0.834828D-02  0.135529D-01
     21 -0.810899D-02 -0.290289D-02 -0.754754D-02 -0.234144D-02  0.876157D-02
               21 
     21  0.139677D-01
 Leave Link  716 at Wed Mar  6 17:36:52 2024, MaxMem=   104857600 cpu:               0.0 elap:               0.0
 (Enter /opt/g16/l103.exe)

 GradGradGradGradGradGradGradGradGradGradGradGradGradGradGradGradGradGrad
 Berny optimization.
 Red2BG is reusing G-inverse.
 Internal  Forces:  Max     0.000318568 RMS     0.000126127
 Search for a saddle point.
 Step number   2 out of a maximum of   31
 All quantities printed in internal units (Hartrees-Bohrs-Radians)
 Swapping is turned off.
 Second derivative matrix not updated -- analytic derivatives used.
 ITU=  0  0
     Eigenvalues ---   -0.05065   0.00163   0.01658   0.05664   0.05961
     Eigenvalues ---    0.09015   0.11184   0.12375   0.15412   0.18543
     Eigenvalues ---    0.24037   0.32894   0.36603   0.37076   0.37577
 Eigenvectors required to have negative eigenvalues:
                          R1        R2        R6        A5        D5
   1                   -0.93638   0.22751   0.18361  -0.12256   0.07056
                          A2        D4        A6        D2        A1
   1                    0.06153  -0.05378  -0.05134  -0.05117   0.04120
 RFO step:  Lambda0=8.577668437D-07 Lambda=-1.91517536D-06.
 Linear search not attempted -- option 19 set.
 Iteration  1 RMS(Cart)=  0.00253882 RMS(Int)=  0.00000541
 Iteration  2 RMS(Cart)=  0.00000428 RMS(Int)=  0.00000058
 Iteration  3 RMS(Cart)=  0.00000000 RMS(Int)=  0.00000058
 ITry= 1 IFail=0 DXMaxC= 4.92D-03 DCOld= 1.00D+10 DXMaxT= 3.00D-01 DXLimC= 3.00D+00 Rises=F
 Variable       Old X    -DE/DX   Delta X   Delta X   Delta X     New X
                                 (Linear)    (Quad)   (Total)
    R1        2.15576   0.00027   0.00000  -0.00334  -0.00334   2.15242
    R2        1.87855   0.00009   0.00000   0.00134   0.00134   1.87989
    R3        2.04642   0.00011   0.00000   0.00029   0.00029   2.04672
    R4        2.04533   0.00011   0.00000   0.00041   0.00041   2.04575
    R5        2.05422   0.00010   0.00000   0.00029   0.00029   2.05451
    R6        2.79626   0.00019   0.00000   0.00147   0.00147   2.79773
    A1        1.98182  -0.00000   0.00000   0.00032   0.00032   1.98215
    A2        1.94086  -0.00015   0.00000  -0.00020  -0.00020   1.94067
    A3        1.81653   0.00010   0.00000   0.00088   0.00088   1.81741
    A4        1.96109  -0.00015   0.00000  -0.00116  -0.00116   1.95993
    A5        1.87918  -0.00007   0.00000  -0.00104  -0.00104   1.87815
    A6        1.87413   0.00032   0.00000   0.00140   0.00140   1.87553
    A7        1.85053  -0.00004   0.00000   0.00070   0.00070   1.85122
    A8        1.91319   0.00012   0.00000   0.00162   0.00162   1.91481
    A9        1.90041   0.00002   0.00000   0.00040   0.00040   1.90081
    D1       -1.05876   0.00000   0.00000  -0.00436  -0.00436  -1.06312
    D2       -3.07596  -0.00003   0.00000  -0.00630  -0.00631  -3.08227
    D3        3.11587  -0.00001   0.00000  -0.00469  -0.00469   3.11117
    D4        1.09867  -0.00004   0.00000  -0.00664  -0.00664   1.09203
    D5        1.00044   0.00002   0.00000  -0.00352  -0.00352   0.99692
    D6       -1.01676  -0.00001   0.00000  -0.00547  -0.00547  -1.02223
         Item               Value     Threshold  Converged?
 Maximum Force            0.000319     0.000450     YES
 RMS     Force            0.000126     0.000300     YES
 Maximum Displacement     0.004921     0.001800     NO 
 RMS     Displacement     0.002539     0.001200     NO 
 Predicted change in Energy=-5.286968D-07
 GradGradGradGradGradGradGradGradGradGradGradGradGradGradGradGradGradGrad

 Leave Link  103 at Wed Mar  6 17:36:52 2024, MaxMem=   104857600 cpu:               0.0 elap:               0.0
 (Enter /opt/g16/l202.exe)
                          Input orientation:                          
 ---------------------------------------------------------------------
 Center     Atomic      Atomic             Coordinates (Angstroms)
 Number     Number       Type             X           Y           Z
 ---------------------------------------------------------------------
      1          1           0       -0.379750   -0.948453    1.096910
      2          1           0       -0.493743    0.753186    1.022171
      3          1           0        0.579591   -0.871624   -1.085862
      4          1           0        0.401928    0.929933   -1.159731
      5          1           0       -1.051117   -0.132052   -1.071140
      6          6           0       -0.005753   -0.006275   -0.800215
      7          8           0        0.071107    0.010059    0.678191
 ---------------------------------------------------------------------
                    Distance matrix (angstroms):
                    1          2          3          4          5
     1  H    0.000000
     2  H    1.707090   0.000000
     3  H    2.385525   2.869819   0.000000
     4  H    3.038384   2.365198   1.811803   0.000000
     5  H    2.411988   2.340142   1.790640   1.801943   0.000000
     6  C    2.150966   2.033717   1.083075   1.082562   1.087200
     7  O    1.139009   0.994794   2.036617   2.081722   2.083205
                    6          7
     6  C    0.000000
     7  O    1.480493   0.000000
 Stoichiometry    CH5O(2)
 Framework group  C1[X(CH5O)]
 Deg. of freedom    15
 Full point group                 C1      NOp   1
 RotChk:  IX=0 Diff= 1.05D-03
 Largest Abelian subgroup         C1      NOp   1
 Largest concise Abelian subgroup C1      NOp   1
                         Standard orientation:                         
 ---------------------------------------------------------------------
 Center     Atomic      Atomic             Coordinates (Angstroms)
 Number     Number       Type             X           Y           Z
 ---------------------------------------------------------------------
      1          1           0       -1.157775    0.913061    0.318845
      2          1           0       -1.057911   -0.788170    0.418830
      3          1           0        1.065084    0.884229   -0.546484
      4          1           0        1.163119   -0.917602   -0.383935
      5          1           0        0.993639    0.126936    1.074563
      6          6           0        0.769983    0.007812    0.017306
      7          8           0       -0.703257   -0.033165   -0.123207
 ---------------------------------------------------------------------
 Rotational constants (GHZ):          96.8131863          21.8837623          20.9343634
 Leave Link  202 at Wed Mar  6 17:36:52 2024, MaxMem=   104857600 cpu:               0.0 elap:               0.0
 (Enter /opt/g16/l301.exe)
 Standard basis: STO-3G (5D, 7F)
 Ernie: Thresh=  0.10000D-02 Tol=  0.10000D-05 Strict=F.
 There are    15 symmetry adapted cartesian basis functions of A   symmetry.
 There are    15 symmetry adapted basis functions of A   symmetry.
    15 basis functions,    45 primitive gaussians,    15 cartesian basis functions
    10 alpha electrons        9 beta electrons
       nuclear repulsion energy        45.5366103609 Hartrees.
 IExCor=    0 DFT=F Ex=HF Corr=None ExCW=0 ScaHFX=  1.000000
 ScaDFX=  1.000000  1.000000  1.000000  1.000000 ScalE2=  1.000000  1.000000
 IRadAn=      5 IRanWt=     -1 IRanGd=            0 ICorTp=0 IEmpDi=  4
 NAtoms=    7 NActive=    7 NUniq=    7 SFac= 1.00D+00 NAtFMM=   60 NAOKFM=F Big=F
 Integral buffers will be    131072 words long.
 Raffenetti 2 integral format.
 Two-electron integral symmetry is turned on.
 Leave Link  301 at Wed Mar  6 17:36:52 2024, MaxMem=   104857600 cpu:               0.0 elap:               0.0
 (Enter /opt/g16/l402.exe)
 External calculation of energy, first and second derivatives.
 Running external command "python3 -u ../pes/h5co_pes.py R"
         input file       "/home/jh-li/scratch/g16/Gau-232478.EIn"
         output file      "/home/jh-li/scratch/g16/Gau-232478.EOu"
         message file     "/home/jh-li/scratch/g16/Gau-232478.EMs"
         fchk file        "/home/jh-li/scratch/g16/Gau-232478.EFC"
         mat. el file     "/home/jh-li/scratch/g16/Gau-232478.EUF"
 Recovered energy= -116.074045105     dipole=      0.000000000000      0.000000000000      0.000000000000
 Energy=    -116.074045     NIter=   0.
 Dipole moment=       0.000000       0.000000       0.000000
 Leave Link  402 at Wed Mar  6 17:36:53 2024, MaxMem=   104857600 cpu:               0.0 elap:               1.7
 (Enter /opt/g16/l716.exe)
 Dipole        = 0.00000000D+00 0.00000000D+00 0.00000000D+00
 ***** Axes restored to original set *****
 -------------------------------------------------------------------
 Center     Atomic                   Forces (Hartrees/Bohr)
 Number     Number              X              Y              Z
 -------------------------------------------------------------------
      1        1          -0.000008207   -0.000003901    0.000001941
      2        1          -0.000001513   -0.000000934    0.000004739
      3        1          -0.000002388   -0.000004749    0.000002989
      4        1           0.000006578   -0.000003118    0.000005364
      5        1           0.000001096    0.000002697   -0.000000462
      6        6          -0.000000116   -0.000003522    0.000002107
      7        8           0.000000626   -0.000004662    0.000004350
 -------------------------------------------------------------------
 Cartesian Forces:  Max     0.000008207 RMS     0.000003764
 Force constants in Cartesian coordinates: 
                1             2             3             4             5 
      1  0.157423D-02
      2 -0.116266D-01 -0.450282D-02
      3  0.341939D-02  0.115399D-01  0.192513D-01
      4  0.206489D-01  0.302684D-01 -0.212787D-01  0.103036D+00
      5 -0.171790D-01 -0.556835D-01  0.240688D-01 -0.121453D+00  0.175866D+00
      6 -0.158020D-01 -0.243731D-01  0.182388D-01 -0.573772D-01  0.691727D-01
      7 -0.308961D-02 -0.190147D-02 -0.172922D-02  0.873849D-03 -0.224813D-02
      8  0.277957D-02 -0.193920D-03 -0.373886D-02  0.297100D-02  0.519768D-04
      9  0.501775D-03  0.217610D-02 -0.173947D-02 -0.486532D-02  0.601785D-02
     10  0.845371D-04  0.963437D-03 -0.693826D-03 -0.128342D-02 -0.126421D-02
     11 -0.414083D-02 -0.205937D-02  0.359748D-02 -0.267008D-03 -0.496980D-02
     12 -0.401971D-02 -0.858265D-02  0.436644D-02  0.342851D-02 -0.273840D-02
     13  0.198338D-02  0.268462D-02  0.129708D-03  0.721807D-03  0.158543D-02
     14 -0.182357D-02 -0.418753D-02 -0.169768D-02  0.246775D-02 -0.386998D-02
     15 -0.444883D-03 -0.641909D-02  0.443047D-02 -0.214237D-02  0.420706D-02
     16  0.292140D-02 -0.541938D-02  0.134667D-01  0.199083D-04  0.515695D-02
     17  0.982324D-02  0.197601D-01  0.106189D-01 -0.160533D-01  0.224479D-01
     18  0.201094D-01  0.467977D-01 -0.221396D-01 -0.733999D-02  0.731651D-02
     19 -0.241247D-01 -0.149629D-01  0.668140D-02 -0.124026D+00  0.135411D+00
     20  0.221528D-01  0.468312D-01 -0.443818D-01  0.102090D+00 -0.133866D+00
     21 -0.376290D-02 -0.211656D-01 -0.224050D-01  0.895726D-01 -0.108018D+00
                6             7             8             9            10 
      6  0.739921D-01
      7 -0.106844D-02  0.144723D+00
      8 -0.477980D-02 -0.141633D+00  0.253101D+00
      9  0.973807D-03 -0.426940D-01  0.660015D-01  0.717154D-01
     10 -0.232186D-02  0.831896D-02  0.146711D-01 -0.534862D-02  0.923463D-01
     11  0.289574D-02 -0.904154D-02 -0.187998D-01  0.662389D-02  0.106896D+00
     12 -0.443771D-02 -0.269282D-02 -0.846799D-02  0.482839D-02 -0.384468D-01
     13 -0.778576D-03 -0.136476D-01 -0.656322D-02 -0.356750D-02 -0.928222D-02
     14  0.237503D-03  0.263961D-01  0.381582D-02  0.620847D-02 -0.257615D-01
     15  0.187889D-02  0.897693D-02  0.108629D-02  0.161020D-02  0.954786D-02
     16  0.231527D-01 -0.143809D+00  0.133732D+00  0.331163D-01 -0.951827D-01
     17 -0.108570D-01  0.124962D+00 -0.239162D+00 -0.546575D-01 -0.970702D-01
     18 -0.639069D-03  0.495034D-01 -0.637510D-01 -0.581052D-01  0.431808D-01
     19  0.542010D-01  0.663989D-02 -0.596121D-02  0.228499D-01  0.500262D-02
     20 -0.323071D-01  0.346088D-02  0.120279D-02 -0.323597D-01  0.156680D-02
     21 -0.900081D-01 -0.102843D-01  0.136285D-01 -0.192971D-01 -0.591169D-02
               11            12            13            14            15 
     11  0.286621D+00
     12 -0.900519D-01  0.826504D-01
     13  0.224862D-02 -0.306953D-02  0.343886D+00
     14 -0.133072D-02 -0.749952D-02  0.346802D-01  0.515300D-01
     15 -0.129827D-02  0.298200D-02  0.766493D-01  0.100081D-01  0.768823D-01
     16 -0.102046D+00  0.321453D-01 -0.322118D+00 -0.340422D-01 -0.580802D-01
     17 -0.272262D+00  0.838242D-01 -0.280198D-01 -0.579127D-01 -0.465610D-02
     18  0.934448D-01 -0.747797D-01 -0.701995D-01 -0.603673D-02 -0.647540D-01
     19  0.635438D-02  0.126490D-01 -0.151479D-02 -0.191462D-02 -0.345045D-01
     20  0.128153D-01  0.335131D-01 -0.661135D-02  0.119504D-01 -0.292346D-02
     21 -0.151902D-01 -0.156278D-01  0.816103D-03 -0.122262D-02 -0.230488D-01
               16            17            18            19            20 
     16  0.620776D+00
     17 -0.180382D-02  0.630088D+00
     18 -0.270821D-01 -0.225272D-01  0.346882D+00
     19 -0.626450D-01  0.815626D-02 -0.817581D-02  0.200675D+00
     20  0.442181D-02 -0.102980D+00 -0.552291D-01 -0.127093D+00  0.164099D+00
     21 -0.167187D-01 -0.173951D-02 -0.126398D+00 -0.536969D-01  0.133685D+00
               21 
     21  0.296768D+00
 FormGI is forming the generalized inverse of G from B-inverse, IUseBI=4.
 Force constants in internal coordinates: 
                1             2             3             4             5 
      1 -0.162145D-01
      2  0.817992D-01  0.301511D+00
      3  0.373652D-02 -0.746455D-03  0.371124D+00
      4  0.179242D-03 -0.757092D-03  0.373049D-02  0.367537D+00
      5  0.664945D-03 -0.124518D-02 -0.843978D-03  0.111564D-02  0.368407D+00
      6  0.402606D-01 -0.170381D-01 -0.593299D-02 -0.573820D-02  0.476817D-02
      7  0.571608D-02  0.266098D-02  0.691136D-02  0.493711D-02 -0.401386D-02
      8  0.512679D-02  0.182305D-02  0.782991D-02 -0.377126D-02  0.444864D-02
      9  0.829475D-02 -0.132747D-01 -0.407044D-03 -0.516043D-02 -0.531533D-02
     10  0.643593D-02  0.156892D-02 -0.199859D-02  0.560152D-02  0.407867D-02
     11 -0.170141D-01  0.143635D-01 -0.866828D-02 -0.299073D-03 -0.808557D-02
     12 -0.106171D-01 -0.845931D-02 -0.503570D-02 -0.249635D-02  0.838692D-02
     13 -0.152590D-02 -0.581360D-02 -0.365169D-02 -0.409694D-02 -0.330151D-03
     14  0.424160D-02  0.120058D-01  0.646642D-03  0.935649D-03 -0.322905D-02
     15  0.101118D-01  0.853701D-02  0.455025D-02  0.443807D-02  0.104902D-02
     16  0.228553D-02  0.617539D-02 -0.201712D-02  0.294542D-02 -0.654625D-02
     17 -0.391672D-02  0.170311D-02 -0.560843D-03  0.483822D-02 -0.495699D-02
     18 -0.416853D-03  0.307185D-02 -0.560363D-02  0.710552D-04  0.475472D-02
     19 -0.661911D-02 -0.140043D-02 -0.414736D-02  0.196385D-02  0.634398D-02
     20  0.740107D-02 -0.208151D-02  0.444444D-02 -0.502126D-02 -0.276594D-03
     21  0.119881D-02 -0.655378D-02  0.590071D-02 -0.312847D-02  0.131267D-02
                6             7             8             9            10 
      6  0.201633D+00
      7 -0.161234D-01  0.482593D-01
      8 -0.231052D-01  0.584811D-02  0.523915D-01
      9  0.279132D-01 -0.386398D-01 -0.382672D-01  0.125691D+00
     10 -0.197949D-01  0.689356D-02  0.772083D-02  0.226304D-02  0.527055D-01
     11  0.205703D-01 -0.351903D-01  0.302094D-02 -0.148454D-01 -0.366855D-01
     12  0.186543D-01  0.502562D-02 -0.397073D-01 -0.255399D-01 -0.429242D-01
     13 -0.363570D-02 -0.203764D-02  0.155890D-02 -0.869181D-03  0.419781D-03
     14 -0.265626D-02  0.352927D-02 -0.427395D-02  0.286409D-02  0.465356D-02
     15  0.127981D-01  0.681972D-03 -0.388402D-03  0.383874D-02 -0.476573D-02
     16  0.416846D-02  0.928263D-02 -0.118224D-01  0.413484D-02  0.669236D-03
     17  0.279237D-02  0.938912D-02 -0.111094D-01  0.143472D-02  0.275677D-03
     18 -0.165086D-02 -0.937748D-02 -0.139066D-03 -0.942355D-02  0.923655D-02
     19 -0.302695D-02 -0.927098D-02  0.573954D-03 -0.121237D-01  0.884299D-02
     20 -0.826973D-04 -0.712263D-03  0.112625D-01  0.105123D-01 -0.883491D-02
     21 -0.145879D-02 -0.605768D-03  0.119755D-01  0.781220D-02 -0.922847D-02
               11            12            13            14            15 
     11  0.118887D+00
     12 -0.276848D-01  0.143277D+00
     13 -0.598507D-03  0.155468D-02  0.247516D-01
     14 -0.819776D-03 -0.667728D-02 -0.231374D-01  0.788925D-01
     15  0.482696D-02 -0.353732D-02 -0.308733D-01 -0.147663D-01  0.100529D+00
     16  0.976056D-02 -0.121976D-01 -0.203925D-02  0.731896D-02  0.785489D-02
     17  0.821576D-02 -0.838115D-02 -0.153197D-02 -0.258321D-03 -0.355196D-02
     18  0.741701D-03  0.863762D-02  0.105463D-02  0.214982D-02  0.274204D-02
     19 -0.803101D-03  0.124540D-01  0.156192D-02 -0.542746D-02 -0.866482D-02
     20 -0.660127D-02 -0.520592D-02  0.183000D-04  0.820663D-03  0.769257D-02
     21 -0.814608D-02 -0.138949D-02  0.525587D-03 -0.675662D-02 -0.371428D-02
               16            17            18            19            20 
     16  0.148998D-01
     17  0.888123D-02  0.128555D-01
     18 -0.268040D-02 -0.667264D-02  0.126904D-01
     19 -0.869898D-02 -0.269839D-02  0.869817D-02  0.146987D-01
     20 -0.209336D-02 -0.689427D-02 -0.355026D-02 -0.835117D-02  0.135651D-01
     21 -0.811193D-02 -0.292003D-02 -0.754250D-02 -0.235059D-02  0.876416D-02
               21 
     21  0.139561D-01
 Leave Link  716 at Wed Mar  6 17:36:53 2024, MaxMem=   104857600 cpu:               0.0 elap:               0.0
 (Enter /opt/g16/l103.exe)

 GradGradGradGradGradGradGradGradGradGradGradGradGradGradGradGradGradGrad
 Berny optimization.
 Red2BG is reusing G-inverse.
 Internal  Forces:  Max     0.000003127 RMS     0.000001114
 Search for a saddle point.
 Step number   3 out of a maximum of   31
 All quantities printed in internal units (Hartrees-Bohrs-Radians)
 Swapping is turned off.
 Second derivative matrix not updated -- analytic derivatives used.
 ITU=  0  0  0
     Eigenvalues ---   -0.04985   0.00162   0.01660   0.05663   0.05958
     Eigenvalues ---    0.08977   0.11131   0.12306   0.15358   0.18444
     Eigenvalues ---    0.23778   0.32601   0.36576   0.37037   0.37538
 Eigenvectors required to have negative eigenvalues:
                          R1        R2        R6        A5        D5
   1                   -0.93497   0.23031   0.18561  -0.12428   0.07099
                          A2        D4        D2        A6        A1
   1                    0.06166  -0.05400  -0.05175  -0.05064   0.04137
 RFO step:  Lambda0=1.317175535D-13 Lambda= 0.00000000D+00.
 Linear search not attempted -- option 19 set.
 Iteration  1 RMS(Cart)=  0.00002711 RMS(Int)=  0.00000000
 Iteration  2 RMS(Cart)=  0.00000000 RMS(Int)=  0.00000000
 ITry= 1 IFail=0 DXMaxC= 6.49D-05 DCOld= 1.00D+10 DXMaxT= 3.00D-01 DXLimC= 3.00D+00 Rises=F
 Variable       Old X    -DE/DX   Delta X   Delta X   Delta X     New X
                                 (Linear)    (Quad)   (Total)
    R1        2.15242   0.00000   0.00000   0.00001   0.00001   2.15242
    R2        1.87989   0.00000   0.00000   0.00001   0.00001   1.87990
    R3        2.04672   0.00000   0.00000   0.00000   0.00000   2.04672
    R4        2.04575   0.00000   0.00000   0.00000   0.00000   2.04575
    R5        2.05451   0.00000   0.00000  -0.00000  -0.00000   2.05451
    R6        2.79773   0.00000   0.00000   0.00001   0.00001   2.79774
    A1        1.98215  -0.00000   0.00000  -0.00000  -0.00000   1.98214
    A2        1.94067  -0.00000   0.00000  -0.00000  -0.00000   1.94067
    A3        1.81741   0.00000   0.00000   0.00000   0.00000   1.81741
    A4        1.95993  -0.00000   0.00000  -0.00000  -0.00000   1.95993
    A5        1.87815  -0.00000   0.00000  -0.00001  -0.00001   1.87814
    A6        1.87553   0.00000   0.00000   0.00001   0.00001   1.87554
    A7        1.85122  -0.00000   0.00000  -0.00001  -0.00001   1.85121
    A8        1.91481   0.00000   0.00000   0.00000   0.00000   1.91481
    A9        1.90081   0.00000   0.00000   0.00000   0.00000   1.90081
    D1       -1.06312  -0.00000   0.00000   0.00005   0.00005  -1.06307
    D2       -3.08227  -0.00000   0.00000   0.00006   0.00006  -3.08221
    D3        3.11117   0.00000   0.00000   0.00006   0.00006   3.11123
    D4        1.09203   0.00000   0.00000   0.00007   0.00007   1.09210
    D5        0.99692   0.00000   0.00000   0.00006   0.00006   0.99697
    D6       -1.02223   0.00000   0.00000   0.00006   0.00006  -1.02216
         Item               Value     Threshold  Converged?
 Maximum Force            0.000003     0.000450     YES
 RMS     Force            0.000001     0.000300     YES
 Maximum Displacement     0.000065     0.001800     YES
 RMS     Displacement     0.000027     0.001200     YES
 Predicted change in Energy=-7.786670D-11
 Optimization completed.
    -- Stationary point found.
                           ----------------------------
                           !   Optimized Parameters   !
                           ! (Angstroms and Degrees)  !
 --------------------------                            --------------------------
 ! Name  Definition              Value          Derivative Info.                !
 --------------------------------------------------------------------------------
 ! R1    R(1,7)                  1.139          -DE/DX =    0.0                 !
 ! R2    R(2,7)                  0.9948         -DE/DX =    0.0                 !
 ! R3    R(3,6)                  1.0831         -DE/DX =    0.0                 !
 ! R4    R(4,6)                  1.0826         -DE/DX =    0.0                 !
 ! R5    R(5,6)                  1.0872         -DE/DX =    0.0                 !
 ! R6    R(6,7)                  1.4805         -DE/DX =    0.0                 !
 ! A1    A(3,6,4)              113.5686         -DE/DX =    0.0                 !
 ! A2    A(3,6,5)              111.1921         -DE/DX =    0.0                 !
 ! A3    A(3,6,7)              104.13           -DE/DX =    0.0                 !
 ! A4    A(4,6,5)              112.2959         -DE/DX =    0.0                 !
 ! A5    A(4,6,7)              107.61           -DE/DX =    0.0                 !
 ! A6    A(5,6,7)              107.4599         -DE/DX =    0.0                 !
 ! A7    A(1,7,2)              106.0674         -DE/DX =    0.0                 !
 ! A8    A(1,7,6)              109.7103         -DE/DX =    0.0                 !
 ! A9    A(2,7,6)              108.9084         -DE/DX =    0.0                 !
 ! D1    D(3,6,7,1)            -60.9124         -DE/DX =    0.0                 !
 ! D2    D(3,6,7,2)           -176.6009         -DE/DX =    0.0                 !
 ! D3    D(4,6,7,1)            178.2572         -DE/DX =    0.0                 !
 ! D4    D(4,6,7,2)             62.5687         -DE/DX =    0.0                 !
 ! D5    D(5,6,7,1)             57.1191         -DE/DX =    0.0                 !
 ! D6    D(5,6,7,2)            -58.5694         -DE/DX =    0.0                 !
 --------------------------------------------------------------------------------
 Largest change from initial coordinates is atom    5       0.005 Angstoms.
 GradGradGradGradGradGradGradGradGradGradGradGradGradGradGradGradGradGrad

 Leave Link  103 at Wed Mar  6 17:36:54 2024, MaxMem=   104857600 cpu:               0.0 elap:               0.0
 (Enter /opt/g16/l202.exe)
                          Input orientation:                          
 ---------------------------------------------------------------------
 Center     Atomic      Atomic             Coordinates (Angstroms)
 Number     Number       Type             X           Y           Z
 ---------------------------------------------------------------------
      1          1           0       -0.379750   -0.948453    1.096910
      2          1           0       -0.493743    0.753186    1.022171
      3          1           0        0.579591   -0.871624   -1.085862
      4          1           0        0.401928    0.929933   -1.159731
      5          1           0       -1.051117   -0.132052   -1.071140
      6          6           0       -0.005753   -0.006275   -0.800215
      7          8           0        0.071107    0.010059    0.678191
 ---------------------------------------------------------------------
                    Distance matrix (angstroms):
                    1          2          3          4          5
     1  H    0.000000
     2  H    1.707090   0.000000
     3  H    2.385525   2.869819   0.000000
     4  H    3.038384   2.365198   1.811803   0.000000
     5  H    2.411988   2.340142   1.790640   1.801943   0.000000
     6  C    2.150966   2.033717   1.083075   1.082562   1.087200
     7  O    1.139009   0.994794   2.036617   2.081722   2.083205
                    6          7
     6  C    0.000000
     7  O    1.480493   0.000000
 Stoichiometry    CH5O(2)
 Framework group  C1[X(CH5O)]
 Deg. of freedom    15
 Full point group                 C1      NOp   1
 RotChk:  IX=0 Diff= 1.25D-14
 Largest Abelian subgroup         C1      NOp   1
 Largest concise Abelian subgroup C1      NOp   1
                         Standard orientation:                         
 ---------------------------------------------------------------------
 Center     Atomic      Atomic             Coordinates (Angstroms)
 Number     Number       Type             X           Y           Z
 ---------------------------------------------------------------------
      1          1           0       -1.157775    0.913061    0.318845
      2          1           0       -1.057911   -0.788170    0.418830
      3          1           0        1.065084    0.884229   -0.546484
      4          1           0        1.163119   -0.917602   -0.383935
      5          1           0        0.993639    0.126936    1.074563
      6          6           0        0.769983    0.007812    0.017306
      7          8           0       -0.703257   -0.033165   -0.123207
 ---------------------------------------------------------------------
 Rotational constants (GHZ):          96.8131863          21.8837623          20.9343634
 Leave Link  202 at Wed Mar  6 17:36:54 2024, MaxMem=   104857600 cpu:               0.0 elap:               0.0
 (Enter /opt/g16/l601.exe)
 Leave Link  601 at Wed Mar  6 17:36:54 2024, MaxMem=   104857600 cpu:               0.0 elap:               0.0
 (Enter /opt/g16/l716.exe)
 Rotating derivatives to standard orientation.
 Dipole        = 0.00000000D+00 0.00000000D+00 0.00000000D+00
 Full mass-weighted force constant matrix:
 Low frequencies ----1116.6978  -30.8110   -1.2105    0.2089    0.6881   11.2009
 Low frequencies ---   12.0162  240.9434  678.5672
 ******    1 imaginary frequencies (negative Signs) ****** 
 Diagonal vibrational polarizability:
        0.0000000       0.0000000       0.0000000
 Harmonic frequencies (cm**-1), IR intensities (KM/Mole), Raman scattering
 activities (A**4/AMU), depolarization ratios for plane and unpolarized
 incident light, reduced masses (AMU), force constants (mDyne/A),
 and normal coordinates:
                      1                      2                      3
                      A                      A                      A
 Frequencies --  -1116.6977               240.9290               678.5662
 Red. masses --      1.1335                 1.0264                 1.1175
 Frc consts  --      0.8328                 0.0351                 0.3032
 IR Inten    --      0.0000                 0.0000                 0.0000
  Atom  AN      X      Y      Z        X      Y      Z        X      Y      Z
     1   1    -0.37   0.77   0.41     0.01  -0.23   0.57     0.60  -0.10   0.46
     2   1     0.15   0.20  -0.07     0.01  -0.26  -0.41     0.06   0.28   0.48
     3   1    -0.08  -0.01   0.02     0.07  -0.21  -0.28     0.02   0.08   0.13
     4   1     0.13   0.06   0.00    -0.03  -0.16   0.33     0.03   0.03   0.07
     5   1     0.02   0.05  -0.02    -0.05   0.35  -0.03    -0.25   0.03   0.04
     6   6    -0.06  -0.02   0.00    -0.00  -0.00  -0.00    -0.04   0.02  -0.01
     7   8     0.05  -0.05  -0.02    -0.00   0.03  -0.01     0.00  -0.03  -0.07
                      4                      5                      6
                      A                      A                      A
 Frequencies --    787.1042               863.7406              1065.0201
 Red. masses --      1.3593                 1.8077                 1.1911
 Frc consts  --      0.4962                 0.7946                 0.7960
 IR Inten    --      0.0000                 0.0000                 0.0000
  Atom  AN      X      Y      Z        X      Y      Z        X      Y      Z
     1   1     0.66   0.30  -0.27     0.34   0.33   0.11     0.23   0.35  -0.13
     2   1    -0.21  -0.25  -0.44    -0.55   0.06  -0.19     0.67  -0.40  -0.03
     3   1    -0.23   0.07   0.02    -0.19   0.10  -0.02     0.28   0.06   0.14
     4   1    -0.08   0.04  -0.03     0.45   0.14  -0.08     0.02  -0.12   0.19
     5   1    -0.06   0.11  -0.03     0.20   0.20  -0.00    -0.18  -0.09   0.04
     6   6    -0.13   0.01  -0.01     0.19  -0.02   0.03     0.05   0.01  -0.03
     7   8     0.09  -0.03   0.06    -0.16  -0.04  -0.01    -0.10   0.00   0.01
                      7                      8                      9
                      A                      A                      A
 Frequencies --   1116.3180              1224.3112              1382.6360
 Red. masses --      1.2847                 1.2380                 1.1970
 Frc consts  --      0.9433                 1.0933                 1.3483
 IR Inten    --      0.0000                 0.0000                 0.0000
  Atom  AN      X      Y      Z        X      Y      Z        X      Y      Z
     1   1    -0.09  -0.18  -0.11    -0.15   0.02  -0.02     0.11  -0.10  -0.05
     2   1     0.20  -0.01   0.03    -0.44   0.11  -0.10     0.07  -0.07   0.05
     3   1    -0.50   0.13   0.06     0.60   0.02   0.19     0.48  -0.21  -0.00
     4   1     0.66   0.09   0.14     0.22   0.01   0.16     0.55   0.29  -0.05
     5   1    -0.37   0.12   0.02    -0.52  -0.06   0.02     0.52   0.04  -0.12
     6   6    -0.02  -0.12  -0.05     0.00   0.03  -0.11    -0.12  -0.02   0.03
     7   8     0.02   0.08   0.03     0.02  -0.03   0.07    -0.02   0.02  -0.01
                     10                     11                     12
                      A                      A                      A
 Frequencies --   1465.5238              1510.5160              2990.2325
 Red. masses --      1.0616                 1.0686                 1.0643
 Frc consts  --      1.3434                 1.4365                 5.6069
 IR Inten    --      0.0000                 0.0000                 0.0000
  Atom  AN      X      Y      Z        X      Y      Z        X      Y      Z
     1   1    -0.01  -0.03   0.02    -0.08  -0.07  -0.02     0.12  -0.18  -0.08
     2   1    -0.13   0.05  -0.02     0.02   0.01   0.01     0.37   0.73  -0.52
     3   1    -0.18   0.24   0.21     0.12   0.31   0.59     0.04  -0.00  -0.02
     4   1     0.06  -0.25   0.67    -0.21  -0.12  -0.06    -0.02   0.03   0.01
     5   1     0.43  -0.37  -0.09     0.20   0.64  -0.14     0.02  -0.01  -0.00
     6   6    -0.02   0.04  -0.06    -0.00  -0.07  -0.03     0.00   0.00   0.00
     7   8     0.00  -0.00  -0.01    -0.00   0.00  -0.00    -0.03  -0.04   0.04
                     13                     14                     15
                      A                      A                      A
 Frequencies --   3152.1541              3257.1653              3278.1337
 Red. masses --      1.0270                 1.1101                 1.1054
 Frc consts  --      6.0121                 6.9391                 6.9987
 IR Inten    --      0.0000                 0.0000                 0.0000
  Atom  AN      X      Y      Z        X      Y      Z        X      Y      Z
     1   1    -0.00  -0.01   0.01    -0.01   0.01   0.00     0.01   0.00  -0.01
     2   1    -0.01   0.02   0.00    -0.01  -0.03   0.01     0.00   0.00  -0.01
     3   1     0.14   0.43  -0.29     0.12   0.34  -0.24    -0.19  -0.59   0.37
     4   1     0.18  -0.46  -0.21    -0.30   0.71   0.31    -0.03   0.10   0.02
     5   1     0.13   0.07   0.63     0.06   0.02   0.32     0.14   0.08   0.66
     6   6    -0.04  -0.00  -0.01     0.01  -0.09  -0.03     0.01   0.03  -0.09
     7   8     0.00  -0.00  -0.00    -0.00   0.00  -0.00    -0.00  -0.00   0.00

 -------------------
 - Thermochemistry -
 -------------------
 Temperature   298.150 Kelvin.  Pressure   1.00000 Atm.
 Atom     1 has atomic number  1 and mass   1.00783
 Atom     2 has atomic number  1 and mass   1.00783
 Atom     3 has atomic number  1 and mass   1.00783
 Atom     4 has atomic number  1 and mass   1.00783
 Atom     5 has atomic number  1 and mass   1.00783
 Atom     6 has atomic number  6 and mass  12.00000
 Atom     7 has atomic number  8 and mass  15.99491
 Molecular mass:    33.03404 amu.
 Principal axes and moments of inertia in atomic units:
                           1         2         3
     Eigenvalues --    18.64148  82.46942  86.20951
           X            0.99916  -0.01274  -0.03895
           Y            0.01204   0.99976  -0.01821
           Z            0.03917   0.01773   0.99908
 This molecule is an asymmetric top.
 Rotational symmetry number  1.
 Rotational temperatures (Kelvin)      4.64630     1.05026     1.00469
 Rotational constants (GHZ):          96.81319    21.88376    20.93436
    1 imaginary frequencies ignored.
 Zero-point vibrational energy     137644.4 (Joules/Mol)
                                   32.89781 (Kcal/Mol)
 Warning -- explicit consideration of   1 degrees of freedom as
           vibrations may cause significant error
 Vibrational temperatures:    346.64   976.31  1132.47  1242.73  1532.33
          (Kelvin)           1606.13  1761.51  1989.30  2108.56  2173.30
                             4302.28  4535.25  4686.33  4716.50
 
 Zero-point correction=                           0.052426 (Hartree/Particle)
 Thermal correction to Energy=                    0.056109
 Thermal correction to Enthalpy=                  0.057053
 Thermal correction to Gibbs Free Energy=         0.028529
 Sum of electronic and zero-point Energies=           -116.021619
 Sum of electronic and thermal Energies=              -116.017936
 Sum of electronic and thermal Enthalpies=            -116.016992
 Sum of electronic and thermal Free Energies=         -116.045517
 
                     E (Thermal)             CV                S
                      KCal/Mol        Cal/Mol-Kelvin    Cal/Mol-Kelvin
 Total                   35.209             10.870             60.035
 Electronic               0.000              0.000              1.377
 Translational            0.889              2.981             36.416
 Rotational               0.889              2.981             19.522
 Vibrational             33.432              4.909              2.720
 Vibration     1          0.658              1.778              1.796
                       Q            Log10(Q)             Ln(Q)
 Total Bot       0.754766D-13        -13.122188        -30.214953
 Total V=0       0.981915D+11         10.992074         25.310185
 Vib (Bot)       0.122709D-23        -23.911124        -55.057397
 Vib (Bot)    1  0.813507D+00         -0.089639         -0.206401
 Vib (V=0)       0.159638D+01          0.203137          0.467741
 Vib (V=0)    1  0.145488D+01          0.162827          0.374923
 Electronic      0.200000D+01          0.301030          0.693147
 Translational   0.746271D+07          6.872896         15.825429
 Rotational      0.412107D+04          3.615010          8.323868
 ***** Axes restored to original set *****
 -------------------------------------------------------------------
 Center     Atomic                   Forces (Hartrees/Bohr)
 Number     Number              X              Y              Z
 -------------------------------------------------------------------
      1        1          -0.000008207   -0.000003901    0.000001941
      2        1          -0.000001513   -0.000000934    0.000004739
      3        1          -0.000002388   -0.000004749    0.000002989
      4        1           0.000006578   -0.000003118    0.000005364
      5        1           0.000001096    0.000002697   -0.000000462
      6        6          -0.000000116   -0.000003522    0.000002107
      7        8           0.000000626   -0.000004662    0.000004350
 -------------------------------------------------------------------
 Cartesian Forces:  Max     0.000008207 RMS     0.000003764
 Force constants in Cartesian coordinates: 
                1             2             3             4             5 
      1  0.157423D-02
      2 -0.116266D-01 -0.450282D-02
      3  0.341939D-02  0.115399D-01  0.192513D-01
      4  0.206489D-01  0.302684D-01 -0.212787D-01  0.103036D+00
      5 -0.171790D-01 -0.556835D-01  0.240688D-01 -0.121453D+00  0.175866D+00
      6 -0.158020D-01 -0.243731D-01  0.182388D-01 -0.573772D-01  0.691727D-01
      7 -0.308961D-02 -0.190147D-02 -0.172922D-02  0.873849D-03 -0.224813D-02
      8  0.277957D-02 -0.193920D-03 -0.373886D-02  0.297100D-02  0.519768D-04
      9  0.501775D-03  0.217610D-02 -0.173947D-02 -0.486532D-02  0.601785D-02
     10  0.845371D-04  0.963437D-03 -0.693826D-03 -0.128342D-02 -0.126421D-02
     11 -0.414083D-02 -0.205937D-02  0.359748D-02 -0.267008D-03 -0.496980D-02
     12 -0.401971D-02 -0.858265D-02  0.436644D-02  0.342851D-02 -0.273840D-02
     13  0.198338D-02  0.268462D-02  0.129708D-03  0.721807D-03  0.158543D-02
     14 -0.182357D-02 -0.418753D-02 -0.169768D-02  0.246775D-02 -0.386998D-02
     15 -0.444883D-03 -0.641909D-02  0.443047D-02 -0.214237D-02  0.420706D-02
     16  0.292140D-02 -0.541938D-02  0.134667D-01  0.199083D-04  0.515695D-02
     17  0.982324D-02  0.197601D-01  0.106189D-01 -0.160533D-01  0.224479D-01
     18  0.201094D-01  0.467977D-01 -0.221396D-01 -0.733999D-02  0.731651D-02
     19 -0.241247D-01 -0.149629D-01  0.668140D-02 -0.124026D+00  0.135411D+00
     20  0.221528D-01  0.468312D-01 -0.443818D-01  0.102090D+00 -0.133866D+00
     21 -0.376290D-02 -0.211656D-01 -0.224050D-01  0.895726D-01 -0.108018D+00
                6             7             8             9            10 
      6  0.739921D-01
      7 -0.106844D-02  0.144723D+00
      8 -0.477980D-02 -0.141633D+00  0.253101D+00
      9  0.973807D-03 -0.426940D-01  0.660015D-01  0.717154D-01
     10 -0.232186D-02  0.831896D-02  0.146711D-01 -0.534862D-02  0.923463D-01
     11  0.289574D-02 -0.904154D-02 -0.187998D-01  0.662389D-02  0.106896D+00
     12 -0.443771D-02 -0.269282D-02 -0.846799D-02  0.482839D-02 -0.384468D-01
     13 -0.778576D-03 -0.136476D-01 -0.656322D-02 -0.356750D-02 -0.928222D-02
     14  0.237503D-03  0.263961D-01  0.381582D-02  0.620847D-02 -0.257615D-01
     15  0.187889D-02  0.897693D-02  0.108629D-02  0.161020D-02  0.954786D-02
     16  0.231527D-01 -0.143809D+00  0.133732D+00  0.331163D-01 -0.951827D-01
     17 -0.108570D-01  0.124962D+00 -0.239162D+00 -0.546575D-01 -0.970702D-01
     18 -0.639069D-03  0.495034D-01 -0.637510D-01 -0.581052D-01  0.431808D-01
     19  0.542010D-01  0.663989D-02 -0.596121D-02  0.228499D-01  0.500262D-02
     20 -0.323071D-01  0.346088D-02  0.120279D-02 -0.323597D-01  0.156680D-02
     21 -0.900081D-01 -0.102843D-01  0.136285D-01 -0.192971D-01 -0.591169D-02
               11            12            13            14            15 
     11  0.286621D+00
     12 -0.900519D-01  0.826504D-01
     13  0.224862D-02 -0.306953D-02  0.343886D+00
     14 -0.133072D-02 -0.749952D-02  0.346802D-01  0.515300D-01
     15 -0.129827D-02  0.298200D-02  0.766493D-01  0.100081D-01  0.768823D-01
     16 -0.102046D+00  0.321453D-01 -0.322118D+00 -0.340422D-01 -0.580802D-01
     17 -0.272262D+00  0.838242D-01 -0.280198D-01 -0.579127D-01 -0.465610D-02
     18  0.934448D-01 -0.747797D-01 -0.701995D-01 -0.603673D-02 -0.647540D-01
     19  0.635438D-02  0.126490D-01 -0.151479D-02 -0.191462D-02 -0.345045D-01
     20  0.128153D-01  0.335131D-01 -0.661135D-02  0.119504D-01 -0.292346D-02
     21 -0.151902D-01 -0.156278D-01  0.816103D-03 -0.122262D-02 -0.230488D-01
               16            17            18            19            20 
     16  0.620776D+00
     17 -0.180382D-02  0.630088D+00
     18 -0.270821D-01 -0.225272D-01  0.346882D+00
     19 -0.626450D-01  0.815626D-02 -0.817581D-02  0.200675D+00
     20  0.442181D-02 -0.102980D+00 -0.552291D-01 -0.127093D+00  0.164099D+00
     21 -0.167187D-01 -0.173951D-02 -0.126398D+00 -0.536969D-01  0.133685D+00
               21 
     21  0.296768D+00
 Red2BG is reusing G-inverse.
 Force constants in internal coordinates: 
                1             2             3             4             5 
      1 -0.162145D-01
      2  0.817992D-01  0.301511D+00
      3  0.373652D-02 -0.746455D-03  0.371124D+00
      4  0.179242D-03 -0.757092D-03  0.373049D-02  0.367537D+00
      5  0.664945D-03 -0.124518D-02 -0.843978D-03  0.111564D-02  0.368407D+00
      6  0.402606D-01 -0.170381D-01 -0.593299D-02 -0.573820D-02  0.476817D-02
      7  0.571608D-02  0.266098D-02  0.691136D-02  0.493711D-02 -0.401386D-02
      8  0.512679D-02  0.182305D-02  0.782991D-02 -0.377126D-02  0.444864D-02
      9  0.829475D-02 -0.132747D-01 -0.407044D-03 -0.516043D-02 -0.531533D-02
     10  0.643593D-02  0.156892D-02 -0.199859D-02  0.560152D-02  0.407867D-02
     11 -0.170141D-01  0.143635D-01 -0.866828D-02 -0.299073D-03 -0.808557D-02
     12 -0.106171D-01 -0.845931D-02 -0.503570D-02 -0.249635D-02  0.838692D-02
     13 -0.152590D-02 -0.581360D-02 -0.365169D-02 -0.409694D-02 -0.330151D-03
     14  0.424160D-02  0.120058D-01  0.646642D-03  0.935649D-03 -0.322905D-02
     15  0.101118D-01  0.853701D-02  0.455025D-02  0.443807D-02  0.104902D-02
     16  0.228553D-02  0.617539D-02 -0.201712D-02  0.294542D-02 -0.654625D-02
     17 -0.391672D-02  0.170311D-02 -0.560843D-03  0.483822D-02 -0.495699D-02
     18 -0.416853D-03  0.307185D-02 -0.560363D-02  0.710552D-04  0.475472D-02
     19 -0.661911D-02 -0.140043D-02 -0.414736D-02  0.196385D-02  0.634398D-02
     20  0.740107D-02 -0.208151D-02  0.444444D-02 -0.502126D-02 -0.276594D-03
     21  0.119881D-02 -0.655378D-02  0.590071D-02 -0.312847D-02  0.131267D-02
                6             7             8             9            10 
      6  0.201633D+00
      7 -0.161234D-01  0.482593D-01
      8 -0.231052D-01  0.584811D-02  0.523915D-01
      9  0.279132D-01 -0.386398D-01 -0.382672D-01  0.125691D+00
     10 -0.197949D-01  0.689356D-02  0.772083D-02  0.226304D-02  0.527055D-01
     11  0.205703D-01 -0.351903D-01  0.302094D-02 -0.148454D-01 -0.366855D-01
     12  0.186543D-01  0.502562D-02 -0.397073D-01 -0.255399D-01 -0.429242D-01
     13 -0.363570D-02 -0.203764D-02  0.155890D-02 -0.869181D-03  0.419781D-03
     14 -0.265626D-02  0.352927D-02 -0.427395D-02  0.286409D-02  0.465356D-02
     15  0.127981D-01  0.681972D-03 -0.388402D-03  0.383874D-02 -0.476573D-02
     16  0.416846D-02  0.928263D-02 -0.118224D-01  0.413484D-02  0.669236D-03
     17  0.279237D-02  0.938912D-02 -0.111094D-01  0.143472D-02  0.275677D-03
     18 -0.165086D-02 -0.937748D-02 -0.139066D-03 -0.942355D-02  0.923655D-02
     19 -0.302695D-02 -0.927098D-02  0.573954D-03 -0.121237D-01  0.884299D-02
     20 -0.826973D-04 -0.712263D-03  0.112625D-01  0.105123D-01 -0.883491D-02
     21 -0.145879D-02 -0.605768D-03  0.119755D-01  0.781220D-02 -0.922847D-02
               11            12            13            14            15 
     11  0.118887D+00
     12 -0.276848D-01  0.143277D+00
     13 -0.598507D-03  0.155468D-02  0.247516D-01
     14 -0.819776D-03 -0.667728D-02 -0.231374D-01  0.788925D-01
     15  0.482696D-02 -0.353732D-02 -0.308733D-01 -0.147663D-01  0.100529D+00
     16  0.976056D-02 -0.121976D-01 -0.203925D-02  0.731896D-02  0.785489D-02
     17  0.821576D-02 -0.838115D-02 -0.153197D-02 -0.258321D-03 -0.355196D-02
     18  0.741701D-03  0.863762D-02  0.105463D-02  0.214982D-02  0.274204D-02
     19 -0.803101D-03  0.124540D-01  0.156192D-02 -0.542746D-02 -0.866482D-02
     20 -0.660127D-02 -0.520592D-02  0.183000D-04  0.820663D-03  0.769257D-02
     21 -0.814608D-02 -0.138949D-02  0.525587D-03 -0.675662D-02 -0.371428D-02
               16            17            18            19            20 
     16  0.148998D-01
     17  0.888123D-02  0.128555D-01
     18 -0.268040D-02 -0.667264D-02  0.126904D-01
     19 -0.869898D-02 -0.269839D-02  0.869817D-02  0.146987D-01
     20 -0.209336D-02 -0.689427D-02 -0.355026D-02 -0.835117D-02  0.135651D-01
     21 -0.811193D-02 -0.292003D-02 -0.754250D-02 -0.235059D-02  0.876416D-02
               21 
     21  0.139561D-01
 Leave Link  716 at Wed Mar  6 17:36:54 2024, MaxMem=   104857600 cpu:               0.0 elap:               0.0
 (Enter /opt/g16/l9999.exe)
 Unable to Open any file for archive entry.
 1\1\GINC-DESKTOP-1D9QDE1\Freq\External='python3 -u ../pes/h5co_pes.py'
 \ZDO\C1H5O1(2)\JH-LI\06-Mar-2024\0\\#p external="python3 -u ../pes/h5c
 o_pes.py" opt=(nomicro,ts,noeigen,calcall)\\H + CH3OH -> H2O + CH3\\0,
 2\H,-0.3797496485,-0.9484529816,1.0969095295\H,-0.4937434444,0.7531863
 354,1.022170543\H,0.5795908223,-0.8716244671,-1.0858623994\H,0.4019283
 162,0.92993264,-1.1597306658\H,-1.0511167099,-0.1320520485,-1.07114032
 17\C,-0.0057534848,-0.0062752069,-0.8002154433\O,0.0711068463,0.010059
 1647,0.6781911873\\Version=ES64L-G16RevC.01\HF=-116.0740451\S2=0.\S2-1
 =0.\S2A=0.\RMSD=0.000e+00\RMSF=3.764e-06\ZeroPoint=0.052426\Thermal=0.
 0561091\ETot=-116.017936\HTot=-116.0169918\GTot=-116.0455166\Dipole=0.
 ,0.,0.\PG=C01 [X(C1H5O1)]\NImag=1\\0.00157423,-0.01162660,-0.00450282,
 0.00341939,0.01153993,0.01925131,0.02064892,0.03026844,-0.02127875,0.1
 0303610,-0.01717901,-0.05568353,0.02406881,-0.12145314,0.17586596,-0.0
 1580201,-0.02437309,0.01823884,-0.05737722,0.06917268,0.07399207,-0.00
 308961,-0.00190147,-0.00172922,0.00087385,-0.00224813,-0.00106844,0.14
 472323,0.00277957,-0.00019392,-0.00373886,0.00297100,0.00005198,-0.004
 77980,-0.14163271,0.25310144,0.00050178,0.00217610,-0.00173947,-0.0048
 6532,0.00601785,0.00097381,-0.04269404,0.06600153,0.07171542,0.0000845
 4,0.00096344,-0.00069383,-0.00128342,-0.00126421,-0.00232186,0.0083189
 6,0.01467108,-0.00534862,0.09234629,-0.00414083,-0.00205937,0.00359748
 ,-0.00026701,-0.00496980,0.00289574,-0.00904154,-0.01879983,0.00662389
 ,0.10689591,0.28662128,-0.00401971,-0.00858265,0.00436644,0.00342851,-
 0.00273840,-0.00443771,-0.00269282,-0.00846799,0.00482839,-0.03844682,
 -0.09005195,0.08265039,0.00198338,0.00268462,0.00012971,0.00072181,0.0
 0158543,-0.00077858,-0.01364764,-0.00656322,-0.00356750,-0.00928222,0.
 00224862,-0.00306953,0.34388577,-0.00182357,-0.00418753,-0.00169768,0.
 00246775,-0.00386998,0.00023750,0.02639615,0.00381582,0.00620847,-0.02
 576150,-0.00133072,-0.00749952,0.03468016,0.05153002,-0.00044488,-0.00
 641909,0.00443047,-0.00214237,0.00420706,0.00187889,0.00897693,0.00108
 629,0.00161020,0.00954786,-0.00129827,0.00298200,0.07664929,0.01000810
 ,0.07688232,0.00292140,-0.00541938,0.01346673,0.00001991,0.00515695,0.
 02315273,-0.14380942,0.13373191,0.03311632,-0.09518273,-0.10204603,0.0
 3214528,-0.32211772,-0.03404222,-0.05808023,0.62077644,0.00982324,0.01
 976009,0.01061887,-0.01605328,0.02244791,-0.01085697,0.12496243,-0.239
 16155,-0.05465748,-0.09707022,-0.27226215,0.08382418,-0.02801983,-0.05
 791273,-0.00465610,-0.00180382,0.63008815,0.02010937,0.04679769,-0.022
 13965,-0.00733999,0.00731651,-0.00063907,0.04950342,-0.06375096,-0.058
 10519,0.04318083,0.09344483,-0.07477974,-0.07019946,-0.00603673,-0.064
 75401,-0.02708208,-0.02252720,0.34688170,-0.02412474,-0.01496289,0.006
 68140,-0.12402637,0.13541108,0.05420095,0.00663989,-0.00596121,0.02284
 989,0.00500262,0.00635438,0.01264902,-0.00151479,-0.00191462,-0.034504
 51,-0.06264496,0.00815626,-0.00817581,0.20067457,0.02215280,0.04683116
 ,-0.04438178,0.10209030,-0.13386634,-0.03230705,0.00346088,0.00120279,
 -0.03235972,0.00156680,0.01281528,0.03351305,-0.00661135,0.01195038,-0
 .00292346,0.00442181,-0.10297962,-0.05522914,-0.12709322,0.16409925,-0
 .00376290,-0.02116563,-0.02240499,0.08957256,-0.10801782,-0.09000806,-
 0.01028429,0.01362853,-0.01929709,-0.00591169,-0.01519023,-0.01562783,
 0.00081610,-0.00122262,-0.02304877,-0.01671871,-0.00173951,-0.12639779
 ,-0.05369691,0.13368462,0.29676753\\0.00000821,0.00000390,-0.00000194,
 0.00000151,0.00000093,-0.00000474,0.00000239,0.00000475,-0.00000299,-0
 .00000658,0.00000312,-0.00000536,-0.00000110,-0.00000270,0.00000046,0.
 00000012,0.00000352,-0.00000211,-0.00000063,0.00000466,-0.00000435\\\@
 The archive entry for this job was punched.


 I HAVE NOT FAILED, I HAVE ONLY DISCOVERED 10,000
 WAYS THAT DIDN'T WORK.  -- THOMAS A. EDISON
 Job cpu time:       0 days  0 hours  0 minutes  1.0 seconds.
 Elapsed time:       0 days  0 hours  0 minutes  5.9 seconds.
 File lengths (MBytes):  RWF=      6 Int=      0 D2E=      0 Chk=      1 Scr=      1
 Normal termination of Gaussian 16 at Wed Mar  6 17:36:54 2024.
