 Entering Gaussian System, Link 0=g16
 Initial command:
 /opt/g16/l1.exe "/home/jhli/scratch/g16/Gau-128151.inp" -scrdir="/home/jhli/scratch/g16/"
 Entering Link 1 = /opt/g16/l1.exe PID=    128161.
  
 Copyright (c) 1988-2019, Gaussian, Inc.  All Rights Reserved.
  
 This is part of the Gaussian(R) 16 program.  It is based on
 the Gaussian(R) 09 system (copyright 2009, Gaussian, Inc.),
 the Gaussian(R) 03 system (copyright 2003, Gaussian, Inc.),
 the Gaussian(R) 98 system (copyright 1998, Gaussian, Inc.),
 the Gaussian(R) 94 system (copyright 1995, Gaussian, Inc.),
 the Gaussian 92(TM) system (copyright 1992, Gaussian, Inc.),
 the Gaussian 90(TM) system (copyright 1990, Gaussian, Inc.),
 the Gaussian 88(TM) system (copyright 1988, Gaussian, Inc.),
 the Gaussian 86(TM) system (copyright 1986, Carnegie Mellon
 University), and the Gaussian 82(TM) system (copyright 1983,
 Carnegie Mellon University). Gaussian is a federally registered
 trademark of Gaussian, Inc.
  
 This software contains proprietary and confidential information,
 including trade secrets, belonging to Gaussian, Inc.
  
 This software is provided under written license and may be
 used, copied, transmitted, or stored only in accord with that
 written license.
  
 The following legend is applicable only to US Government
 contracts under FAR:
  
                    RESTRICTED RIGHTS LEGEND
  
 Use, reproduction and disclosure by the US Government is
 subject to restrictions as set forth in subparagraphs (a)
 and (c) of the Commercial Computer Software - Restricted
 Rights clause in FAR 52.227-19.
  
 Gaussian, Inc.
 340 Quinnipiac St., Bldg. 40, Wallingford CT 06492
  
  
 ---------------------------------------------------------------
 Warning -- This program may not be used in any manner that
 competes with the business of Gaussian, Inc. or will provide
 assistance to any competitor of Gaussian, Inc.  The licensee
 of this program is prohibited from giving any competitor of
 Gaussian, Inc. access to this program.  By using this program,
 the user acknowledges that Gaussian, Inc. is engaged in the
 business of creating and licensing software in the field of
 computational chemistry and represents and warrants to the
 licensee that it is not a competitor of Gaussian, Inc. and that
 it will not use this program in any manner prohibited above.
 ---------------------------------------------------------------
  

 Cite this work as:
 Gaussian 16, Revision C.01,
 M. J. Frisch, G. W. Trucks, H. B. Schlegel, G. E. Scuseria, 
 M. A. Robb, J. R. Cheeseman, G. Scalmani, V. Barone, 
 G. A. Petersson, H. Nakatsuji, X. Li, M. Caricato, A. V. Marenich, 
 J. Bloino, B. G. Janesko, R. Gomperts, B. Mennucci, H. P. Hratchian, 
 J. V. Ortiz, A. F. Izmaylov, J. L. Sonnenberg, D. Williams-Young, 
 F. Ding, F. Lipparini, F. Egidi, J. Goings, B. Peng, A. Petrone, 
 T. Henderson, D. Ranasinghe, V. G. Zakrzewski, J. Gao, N. Rega, 
 G. Zheng, W. Liang, M. Hada, M. Ehara, K. Toyota, R. Fukuda, 
 J. Hasegawa, M. Ishida, T. Nakajima, Y. Honda, O. Kitao, H. Nakai, 
 T. Vreven, K. Throssell, J. A. Montgomery, Jr., J. E. Peralta, 
 F. Ogliaro, M. J. Bearpark, J. J. Heyd, E. N. Brothers, K. N. Kudin, 
 V. N. Staroverov, T. A. Keith, R. Kobayashi, J. Normand, 
 K. Raghavachari, A. P. Rendell, J. C. Burant, S. S. Iyengar, 
 J. Tomasi, M. Cossi, J. M. Millam, M. Klene, C. Adamo, R. Cammi, 
 J. W. Ochterski, R. L. Martin, K. Morokuma, O. Farkas, 
 J. B. Foresman, and D. J. Fox, Gaussian, Inc., Wallingford CT, 2019.
 
 ******************************************
 Gaussian 16:  ES64L-G16RevC.01  3-Jul-2019
                 3-Jan-2025 
 ******************************************
 %nproc=1
 Will use up to    1 processors via shared memory.
 %chk=H2S-opt-freq.chk
 ----------------------------------------------------------------
 #p external="python3 -u ../pes/h2s_pes.py" opt=(nomicro,calcall)
 ----------------------------------------------------------------
 1/10=4,18=20,19=15,26=1,38=1/1,3;
 2/9=110,12=2,17=6,18=5,40=1/2;
 3/11=9,25=1,30=1,41=9900000,43=2,71=2,140=1/1;
 4/20=17,22=2,24=3,113=1,114=1/2;
 6/7=2,8=2,9=2,10=2,18=1/1;
 7/25=1,44=-1/16;
 1/10=4,18=20,19=15,26=1/3(3);
 2/9=110/2;
 7/8=1,9=1,25=1,44=-1/16;
 99//99;
 2/9=110/2;
 3/11=9,25=1,30=1,41=9900000,43=2,71=2,140=1/1;
 4/16=2,20=17,22=2,24=3,113=1,114=1/2;
 7/25=1,44=-1/16;
 1/10=4,18=20,19=15,26=1/3(-4);
 2/9=110/2;
 6/7=2,8=2,9=2,10=2,18=1/1;
 7/8=1,9=1,25=1,44=-1/16;
 99//99;
 Leave Link    1 at Fri Jan  3 11:52:27 2025, MaxMem=           0 cpu:               0.0 elap:               0.0
 (Enter /opt/g16/l101.exe)
 ---
 H2S
 ---
 Symbolic Z-matrix:
 Charge =  0 Multiplicity = 1
 H                     0.       -0.96544   0.87284 
 H                     0.        0.96544   0.87284 
 S                     0.        0.       -0.05483 
 
 ITRead=  0  0  0
 MicOpt= -1 -1 -1
 NAtoms=      3 NQM=        3 NQMF=       0 NMMI=      0 NMMIF=      0
                NMic=       0 NMicF=      0.
                    Isotopes and Nuclear Properties:
 (Nuclear quadrupole moments (NQMom) in fm**2, nuclear magnetic moments (NMagM)
  in nuclear magnetons)

  Atom         1           2           3
 IAtWgt=           1           1          32
 AtmWgt=   1.0078250   1.0078250  31.9720718
 NucSpn=           1           1           0
 AtZEff=  -0.0000000  -0.0000000  -0.0000000
 NQMom=    0.0000000   0.0000000   0.0000000
 NMagM=    2.7928460   2.7928460   0.0000000
 AtZNuc=   1.0000000   1.0000000  16.0000000
 Leave Link  101 at Fri Jan  3 11:52:27 2025, MaxMem=   104857600 cpu:               0.1 elap:               0.1
 (Enter /opt/g16/l103.exe)

 GradGradGradGradGradGradGradGradGradGradGradGradGradGradGradGradGradGrad
 Berny optimization.
 Initialization pass.
                           ----------------------------
                           !    Initial Parameters    !
                           ! (Angstroms and Degrees)  !
 --------------------------                            --------------------------
 ! Name  Definition              Value          Derivative Info.                !
 --------------------------------------------------------------------------------
 ! R1    R(1,3)                  1.3389         calculate D2E/DX2 analytically  !
 ! R2    R(2,3)                  1.3389         calculate D2E/DX2 analytically  !
 ! A1    A(1,3,2)               92.2858         calculate D2E/DX2 analytically  !
 --------------------------------------------------------------------------------
 Trust Radius=3.00D-01 FncErr=1.00D-07 GrdErr=1.00D-07 EigMax=2.50D+02 EigMin=1.00D-04
 Number of steps in this run=     20 maximum allowed number of steps=    100.
 GradGradGradGradGradGradGradGradGradGradGradGradGradGradGradGradGradGrad

 Leave Link  103 at Fri Jan  3 11:52:27 2025, MaxMem=   104857600 cpu:               0.0 elap:               0.0
 (Enter /opt/g16/l202.exe)
                          Input orientation:                          
 ---------------------------------------------------------------------
 Center     Atomic      Atomic             Coordinates (Angstroms)
 Number     Number       Type             X           Y           Z
 ---------------------------------------------------------------------
      1          1           0        0.000000   -0.965438    0.872836
      2          1           0        0.000000    0.965438    0.872836
      3         16           0        0.000000    0.000000   -0.054834
 ---------------------------------------------------------------------
                    Distance matrix (angstroms):
                    1          2          3
     1  H    0.000000
     2  H    1.930876   0.000000
     3  S    1.338896   1.338896   0.000000
 Stoichiometry    H2S
 Framework group  C2V[C2(S),SGV(H2)]
 Deg. of freedom     2
 Full point group                 C2V     NOp   4
 Largest Abelian subgroup         C2V     NOp   4
 Largest concise Abelian subgroup C2      NOp   2
                         Standard orientation:                         
 ---------------------------------------------------------------------
 Center     Atomic      Atomic             Coordinates (Angstroms)
 Number     Number       Type             X           Y           Z
 ---------------------------------------------------------------------
      1          1           0       -0.000000    0.965438   -0.824596
      2          1           0       -0.000000   -0.965438   -0.824596
      3         16           0        0.000000    0.000000    0.103074
 ---------------------------------------------------------------------
 Rotational constants (GHZ):         309.7179048         269.0006214         143.9634383
 Leave Link  202 at Fri Jan  3 11:52:27 2025, MaxMem=   104857600 cpu:               0.0 elap:               0.0
 (Enter /opt/g16/l301.exe)
 Standard basis: STO-3G (5D, 7F)
 Ernie: Thresh=  0.10000D-02 Tol=  0.10000D-05 Strict=F.
 There are     6 symmetry adapted cartesian basis functions of A1  symmetry.
 There are     0 symmetry adapted cartesian basis functions of A2  symmetry.
 There are     2 symmetry adapted cartesian basis functions of B1  symmetry.
 There are     3 symmetry adapted cartesian basis functions of B2  symmetry.
 There are     6 symmetry adapted basis functions of A1  symmetry.
 There are     0 symmetry adapted basis functions of A2  symmetry.
 There are     2 symmetry adapted basis functions of B1  symmetry.
 There are     3 symmetry adapted basis functions of B2  symmetry.
    11 basis functions,    33 primitive gaussians,    11 cartesian basis functions
     9 alpha electrons        9 beta electrons
       nuclear repulsion energy        12.9215496269 Hartrees.
 IExCor=    0 DFT=F Ex=HF Corr=None ExCW=0 ScaHFX=  1.000000
 ScaDFX=  1.000000  1.000000  1.000000  1.000000 ScalE2=  1.000000  1.000000
 IRadAn=      5 IRanWt=     -1 IRanGd=            0 ICorTp=0 IEmpDi=  4
 NAtoms=    3 NActive=    3 NUniq=    2 SFac= 2.25D+00 NAtFMM=   60 NAOKFM=F Big=F
 Integral buffers will be    131072 words long.
 Raffenetti 1 integral format.
 Two-electron integral symmetry is turned on.
 Leave Link  301 at Fri Jan  3 11:52:27 2025, MaxMem=   104857600 cpu:               0.0 elap:               0.0
 (Enter /opt/g16/l402.exe)
 External calculation of energy, first and second derivatives.
 Running external command "python3 -u ../pes/h2s_pes.py R"
         input file       "/home/jhli/scratch/g16/Gau-128161.EIn"
         output file      "/home/jhli/scratch/g16/Gau-128161.EOu"
         message file     "/home/jhli/scratch/g16/Gau-128161.EMs"
         fchk file        "/home/jhli/scratch/g16/Gau-128161.EFC"
         mat. el file     "/home/jhli/scratch/g16/Gau-128161.EUF"
 initialization done
 Recovered energy= -797.917604008     dipole=      0.000000000000      0.000000000000      0.000000000000
 Energy=    -797.917604     NIter=   0.
 Dipole moment=       0.000000       0.000000       0.000000
 Leave Link  402 at Fri Jan  3 11:52:28 2025, MaxMem=   104857600 cpu:               0.0 elap:               0.1
 (Enter /opt/g16/l601.exe)
 Leave Link  601 at Fri Jan  3 11:52:28 2025, MaxMem=   104857600 cpu:               0.0 elap:               0.0
 (Enter /opt/g16/l716.exe)
 Dipole        = 0.00000000D+00 0.00000000D+00 0.00000000D+00
 ***** Axes restored to original set *****
 -------------------------------------------------------------------
 Center     Atomic                   Forces (Hartrees/Bohr)
 Number     Number              X              Y              Z
 -------------------------------------------------------------------
      1        1           0.000000000   -0.000016911    0.000021559
      2        1           0.000000000    0.000016911    0.000021559
      3       16          -0.000000000    0.000000000   -0.000046697
 -------------------------------------------------------------------
 Cartesian Forces:  Max     0.000046697 RMS     0.000020227
 Force constants in Cartesian coordinates: 
                1             2             3             4             5 
      1  0.106881D-04
      2  0.000000D+00  0.159949D+00
      3  0.000000D+00 -0.123798D+00  0.142384D+00
      4 -0.226415D-05  0.000000D+00  0.000000D+00  0.106882D-04
      5  0.000000D+00 -0.162572D-01 -0.143340D-01  0.000000D+00  0.159949D+00
      6  0.000000D+00  0.143340D-01  0.971852D-02  0.000000D+00  0.123798D+00
      7 -0.967045D-05  0.000000D+00  0.000000D+00 -0.967045D-05  0.000000D+00
      8  0.000000D+00 -0.143691D+00  0.138132D+00  0.000000D+00 -0.143691D+00
      9  0.000000D+00  0.109466D+00 -0.152104D+00  0.000000D+00 -0.109466D+00
                6             7             8             9 
      6  0.142384D+00
      7  0.000000D+00  0.218339D-04
      8 -0.138132D+00  0.000000D+00  0.287382D+00
      9 -0.152104D+00  0.000000D+00  0.000000D+00  0.304212D+00
 FormGI is forming the generalized inverse of G from B-inverse, IUseBI=4.
 Force constants in internal coordinates: 
                1             2             3 
      1  0.275211D+00
      2 -0.119725D-02  0.275211D+00
      3  0.971176D-02  0.971176D-02  0.173828D+00
 Leave Link  716 at Fri Jan  3 11:52:28 2025, MaxMem=   104857600 cpu:               0.0 elap:               0.0
 (Enter /opt/g16/l103.exe)

 GradGradGradGradGradGradGradGradGradGradGradGradGradGradGradGradGradGrad
 Berny optimization.
 Red2BG is reusing G-inverse.
 Internal  Forces:  Max     0.000027958 RMS     0.000023833
 Search for a local minimum.
 Step number   1 out of a maximum of   20
 All quantities printed in internal units (Hartrees-Bohrs-Radians)
 RMS Force = .23833D-04 SwitMx=.10000D-02 MixMth= 2
 Mixed Optimization -- En-DIIS/RFO-DIIS
 Second derivative matrix not updated -- analytic derivatives used.
 The second derivative matrix:
                          R1        R2        A1
           R1           0.27521
           R2          -0.00120   0.27521
           A1           0.00971   0.00971   0.17383
 ITU=  0
     Eigenvalues ---    0.17198   0.27586   0.27641
 RFO step:  Lambda= 0.00000000D+00 EMin= 1.71979210D-01
 Linear search not attempted -- first point.
 Iteration  1 RMS(Cart)=  0.00006879 RMS(Int)=  0.00000000
 Iteration  2 RMS(Cart)=  0.00000000 RMS(Int)=  0.00000000
 ITry= 1 IFail=0 DXMaxC= 9.71D-05 DCOld= 1.00D+10 DXMaxT= 3.00D-01 DXLimC= 3.00D+00 Rises=F
 ClnCor:  largest displacement from symmetrization is 4.14D-10 for atom     2.
 Variable       Old X    -DE/DX   Delta X   Delta X   Delta X     New X
                                 (Linear)    (Quad)   (Total)
    R1        2.53015   0.00003   0.00000   0.00010   0.00010   2.53025
    R2        2.53015   0.00003   0.00000   0.00010   0.00010   2.53025
    A1        1.61069  -0.00001   0.00000  -0.00008  -0.00008   1.61061
         Item               Value     Threshold  Converged?
 Maximum Force            0.000028     0.000450     YES
 RMS     Force            0.000024     0.000300     YES
 Maximum Displacement     0.000097     0.001800     YES
 RMS     Displacement     0.000069     0.001200     YES
 Predicted change in Energy=-3.406201D-09
 Optimization completed.
    -- Stationary point found.
                           ----------------------------
                           !   Optimized Parameters   !
                           ! (Angstroms and Degrees)  !
 --------------------------                            --------------------------
 ! Name  Definition              Value          Derivative Info.                !
 --------------------------------------------------------------------------------
 ! R1    R(1,3)                  1.3389         -DE/DX =    0.0                 !
 ! R2    R(2,3)                  1.3389         -DE/DX =    0.0                 !
 ! A1    A(1,3,2)               92.2858         -DE/DX =    0.0                 !
 --------------------------------------------------------------------------------
 Largest change from initial coordinates is atom    0       0.000 Angstoms.
 GradGradGradGradGradGradGradGradGradGradGradGradGradGradGradGradGradGrad

 Leave Link  103 at Fri Jan  3 11:52:28 2025, MaxMem=   104857600 cpu:               0.0 elap:               0.0
 (Enter /opt/g16/l202.exe)
                          Input orientation:                          
 ---------------------------------------------------------------------
 Center     Atomic      Atomic             Coordinates (Angstroms)
 Number     Number       Type             X           Y           Z
 ---------------------------------------------------------------------
      1          1           0        0.000000   -0.965438    0.872836
      2          1           0       -0.000000    0.965438    0.872836
      3         16           0        0.000000   -0.000000   -0.054834
 ---------------------------------------------------------------------
                    Distance matrix (angstroms):
                    1          2          3
     1  H    0.000000
     2  H    1.930876   0.000000
     3  S    1.338896   1.338896   0.000000
 Stoichiometry    H2S
 Framework group  C2V[C2(S),SGV(H2)]
 Deg. of freedom     2
 Full point group                 C2V     NOp   4
 RotChk:  IX=0 Diff= 2.43D-16
 Largest Abelian subgroup         C2V     NOp   4
 Largest concise Abelian subgroup C2      NOp   2
                         Standard orientation:                         
 ---------------------------------------------------------------------
 Center     Atomic      Atomic             Coordinates (Angstroms)
 Number     Number       Type             X           Y           Z
 ---------------------------------------------------------------------
      1          1           0       -0.000000    0.965438   -0.824596
      2          1           0       -0.000000   -0.965438   -0.824596
      3         16           0       -0.000000    0.000000    0.103074
 ---------------------------------------------------------------------
 Rotational constants (GHZ):         309.7179048         269.0006214         143.9634383
 Leave Link  202 at Fri Jan  3 11:52:28 2025, MaxMem=   104857600 cpu:               0.0 elap:               0.0
 (Enter /opt/g16/l716.exe)
 Rotating derivatives to standard orientation.
 Dipole        = 0.00000000D+00 0.00000000D+00 0.00000000D+00
 Full mass-weighted force constant matrix:
 Low frequencies ---  -41.5638   -0.5306   -0.0405   -0.0174   15.4661   18.4283
 Low frequencies --- 1210.1419 2719.3819 2735.9021
 Diagonal vibrational polarizability:
        0.0000000       0.0000000       0.0000000
 Harmonic frequencies (cm**-1), IR intensities (KM/Mole), Raman scattering
 activities (A**4/AMU), depolarization ratios for plane and unpolarized
 incident light, reduced masses (AMU), force constants (mDyne/A),
 and normal coordinates:
                      1                      2                      3
                     A1                     A1                     B2
 Frequencies --   1210.1419              2719.3819              2735.9021
 Red. masses --      1.0396                 1.0357                 1.0398
 Frc consts  --      0.8970                 4.5124                 4.5856
 IR Inten    --      0.0000                 0.0000                 0.0000
  Atom  AN      X      Y      Z        X      Y      Z        X      Y      Z
     1   1     0.00   0.49   0.51     0.00   0.52  -0.48     0.00   0.51  -0.49
     2   1     0.00  -0.49   0.51    -0.00  -0.52  -0.48     0.00   0.51   0.49
     3  16    -0.00  -0.00  -0.03     0.00   0.00   0.03    -0.00  -0.03   0.00

 -------------------
 - Thermochemistry -
 -------------------
 Temperature   298.150 Kelvin.  Pressure   1.00000 Atm.
 Atom     1 has atomic number  1 and mass   1.00783
 Atom     2 has atomic number  1 and mass   1.00783
 Atom     3 has atomic number 16 and mass  31.97207
 Molecular mass:    33.98772 amu.
 Principal axes and moments of inertia in atomic units:
                           1         2         3
     Eigenvalues --     5.82705   6.70906  12.53611
           X            0.00000   0.00000   1.00000
           Y            1.00000   0.00000  -0.00000
           Z           -0.00000   1.00000  -0.00000
 This molecule is an asymmetric top.
 Rotational symmetry number  2.
 Rotational temperatures (Kelvin)     14.86412    12.90999     6.90916
 Rotational constants (GHZ):         309.71790   269.00062   143.96344
 Zero-point vibrational energy      39868.1 (Joules/Mol)
                                    9.52870 (Kcal/Mol)
 Vibrational temperatures:   1741.12  3912.58  3936.35
          (Kelvin)
 
 Zero-point correction=                           0.015185 (Hartree/Particle)
 Thermal correction to Energy=                    0.018034
 Thermal correction to Enthalpy=                  0.018978
 Thermal correction to Gibbs Free Energy=        -0.004361
 Sum of electronic and zero-point Energies=           -797.902419
 Sum of electronic and thermal Energies=              -797.899570
 Sum of electronic and thermal Enthalpies=            -797.898626
 Sum of electronic and thermal Free Energies=         -797.921965
 
                     E (Thermal)             CV                S
                      KCal/Mol        Cal/Mol-Kelvin    Cal/Mol-Kelvin
 Total                   11.316              6.161             49.121
 Electronic               0.000              0.000              0.000
 Translational            0.889              2.981             36.501
 Rotational               0.889              2.981             12.580
 Vibrational              9.539              0.200              0.040
                       Q            Log10(Q)             Ln(Q)
 Total Bot       0.101407D+03          2.006067          4.619139
 Total V=0       0.978715D+09          8.990656         20.701751
 Vib (Bot)       0.103915D-06         -6.983322        -16.079694
 Vib (V=0)       0.100292D+01          0.001267          0.002918
 Electronic      0.100000D+01          0.000000          0.000000
 Translational   0.778820D+07          6.891437         15.868120
 Rotational      0.125300D+03          2.097952          4.830713
 ***** Axes restored to original set *****
 -------------------------------------------------------------------
 Center     Atomic                   Forces (Hartrees/Bohr)
 Number     Number              X              Y              Z
 -------------------------------------------------------------------
      1        1           0.000000000   -0.000016911    0.000021559
      2        1           0.000000000    0.000016911    0.000021559
      3       16          -0.000000000    0.000000000   -0.000046697
 -------------------------------------------------------------------
 Cartesian Forces:  Max     0.000046697 RMS     0.000020227
 Force constants in Cartesian coordinates: 
                1             2             3             4             5 
      1  0.106881D-04
      2  0.000000D+00  0.159949D+00
      3  0.000000D+00 -0.123798D+00  0.142384D+00
      4 -0.226415D-05  0.000000D+00  0.000000D+00  0.106882D-04
      5  0.000000D+00 -0.162572D-01 -0.143340D-01  0.000000D+00  0.159949D+00
      6  0.000000D+00  0.143340D-01  0.971852D-02  0.000000D+00  0.123798D+00
      7 -0.967045D-05  0.000000D+00  0.000000D+00 -0.967045D-05  0.000000D+00
      8  0.000000D+00 -0.143691D+00  0.138132D+00  0.000000D+00 -0.143691D+00
      9  0.000000D+00  0.109466D+00 -0.152104D+00  0.000000D+00 -0.109466D+00
                6             7             8             9 
      6  0.142384D+00
      7  0.000000D+00  0.218339D-04
      8 -0.138132D+00  0.000000D+00  0.287382D+00
      9 -0.152104D+00  0.000000D+00  0.000000D+00  0.304212D+00
 Red2BG is reusing G-inverse.
 Force constants in internal coordinates: 
                1             2             3 
      1  0.275211D+00
      2 -0.119725D-02  0.275211D+00
      3  0.971176D-02  0.971176D-02  0.173828D+00
 Leave Link  716 at Fri Jan  3 11:52:28 2025, MaxMem=   104857600 cpu:               0.0 elap:               0.0
 (Enter /opt/g16/l9999.exe)
 Unable to Open any file for archive entry.
 1\1\GINC-GPUNODE01\Freq\External='python3 -u ../pes/h2s_pes.py'\ZDO\H2
 S1\JHLI\03-Jan-2025\0\\#p external="python3 -u ../pes/h2s_pes.py" opt=
 (nomicro,calcall)\\H2S\\0,1\H,0.,-0.965438,0.872836\H,0.,0.965438,0.87
 2836\S,0.,0.,-0.054834\\Version=ES64L-G16RevC.01\HF=-797.917604\RMSD=0
 .000e+00\RMSF=2.023e-05\ZeroPoint=0.015185\Thermal=0.0180336\ETot=-797
 .8995704\HTot=-797.8986262\GTot=-797.9219653\Dipole=0.,0.,0.\PG=C02V [
 C2(S1),SGV(H2)]\NImag=0\\0.00001069,0.,0.15994852,0.,-0.12379836,0.142
 38379,-0.00000226,0.,0.,0.00001069,0.,-0.01625722,-0.01433396,0.,0.159
 94852,0.,0.01433396,0.00971852,0.,0.12379836,0.14238379,-0.00000967,0.
 ,0.,-0.00000967,0.,0.,0.00002183,0.,-0.14369111,0.13813216,0.,-0.14369
 111,-0.13813216,0.,0.28738183,0.,0.10946589,-0.15210404,0.,-0.10946589
 ,-0.15210404,0.,0.,0.30421155\\0.,0.00001691,-0.00002156,0.,-0.0000169
 1,-0.00002156,0.,0.,0.00004670\\\@
 The archive entry for this job was punched.


 We're simply so accustomed to the marvels of everyday thought
 that we never wonder about it.
 -- Marvin Minsky in "Why people think computers are smart"
 Job cpu time:       0 days  0 hours  0 minutes  0.2 seconds.
 Elapsed time:       0 days  0 hours  0 minutes  0.3 seconds.
 File lengths (MBytes):  RWF=      6 Int=      0 D2E=      0 Chk=      1 Scr=      1
 Normal termination of Gaussian 16 at Fri Jan  3 11:52:28 2025.
