 Entering Gaussian System, Link 0=g16
 Initial command:
 /opt/g16/l1.exe "/home/jhli/scratch/g16/Gau-114553.inp" -scrdir="/home/jhli/scratch/g16/"
 Entering Link 1 = /opt/g16/l1.exe PID=    114563.
  
 Copyright (c) 1988-2019, Gaussian, Inc.  All Rights Reserved.
  
 This is part of the Gaussian(R) 16 program.  It is based on
 the Gaussian(R) 09 system (copyright 2009, Gaussian, Inc.),
 the Gaussian(R) 03 system (copyright 2003, Gaussian, Inc.),
 the Gaussian(R) 98 system (copyright 1998, Gaussian, Inc.),
 the Gaussian(R) 94 system (copyright 1995, Gaussian, Inc.),
 the Gaussian 92(TM) system (copyright 1992, Gaussian, Inc.),
 the Gaussian 90(TM) system (copyright 1990, Gaussian, Inc.),
 the Gaussian 88(TM) system (copyright 1988, Gaussian, Inc.),
 the Gaussian 86(TM) system (copyright 1986, Carnegie Mellon
 University), and the Gaussian 82(TM) system (copyright 1983,
 Carnegie Mellon University). Gaussian is a federally registered
 trademark of Gaussian, Inc.
  
 This software contains proprietary and confidential information,
 including trade secrets, belonging to Gaussian, Inc.
  
 This software is provided under written license and may be
 used, copied, transmitted, or stored only in accord with that
 written license.
  
 The following legend is applicable only to US Government
 contracts under FAR:
  
                    RESTRICTED RIGHTS LEGEND
  
 Use, reproduction and disclosure by the US Government is
 subject to restrictions as set forth in subparagraphs (a)
 and (c) of the Commercial Computer Software - Restricted
 Rights clause in FAR 52.227-19.
  
 Gaussian, Inc.
 340 Quinnipiac St., Bldg. 40, Wallingford CT 06492
  
  
 ---------------------------------------------------------------
 Warning -- This program may not be used in any manner that
 competes with the business of Gaussian, Inc. or will provide
 assistance to any competitor of Gaussian, Inc.  The licensee
 of this program is prohibited from giving any competitor of
 Gaussian, Inc. access to this program.  By using this program,
 the user acknowledges that Gaussian, Inc. is engaged in the
 business of creating and licensing software in the field of
 computational chemistry and represents and warrants to the
 licensee that it is not a competitor of Gaussian, Inc. and that
 it will not use this program in any manner prohibited above.
 ---------------------------------------------------------------
  

 Cite this work as:
 Gaussian 16, Revision C.01,
 M. J. Frisch, G. W. Trucks, H. B. Schlegel, G. E. Scuseria, 
 M. A. Robb, J. R. Cheeseman, G. Scalmani, V. Barone, 
 G. A. Petersson, H. Nakatsuji, X. Li, M. Caricato, A. V. Marenich, 
 J. Bloino, B. G. Janesko, R. Gomperts, B. Mennucci, H. P. Hratchian, 
 J. V. Ortiz, A. F. Izmaylov, J. L. Sonnenberg, D. Williams-Young, 
 F. Ding, F. Lipparini, F. Egidi, J. Goings, B. Peng, A. Petrone, 
 T. Henderson, D. Ranasinghe, V. G. Zakrzewski, J. Gao, N. Rega, 
 G. Zheng, W. Liang, M. Hada, M. Ehara, K. Toyota, R. Fukuda, 
 J. Hasegawa, M. Ishida, T. Nakajima, Y. Honda, O. Kitao, H. Nakai, 
 T. Vreven, K. Throssell, J. A. Montgomery, Jr., J. E. Peralta, 
 F. Ogliaro, M. J. Bearpark, J. J. Heyd, E. N. Brothers, K. N. Kudin, 
 V. N. Staroverov, T. A. Keith, R. Kobayashi, J. Normand, 
 K. Raghavachari, A. P. Rendell, J. C. Burant, S. S. Iyengar, 
 J. Tomasi, M. Cossi, J. M. Millam, M. Klene, C. Adamo, R. Cammi, 
 J. W. Ochterski, R. L. Martin, K. Morokuma, O. Farkas, 
 J. B. Foresman, and D. J. Fox, Gaussian, Inc., Wallingford CT, 2019.
 
 ******************************************
 Gaussian 16:  ES64L-G16RevC.01  3-Jul-2019
                 3-Jan-2025 
 ******************************************
 %nproc=1
 Will use up to    1 processors via shared memory.
 %chk=min-5-opt-freq.chk
 -----------------------------------------------------------------
 #p external="python3 -u ../pes/h4s2_pes.py" opt=(nomicro,calcall)
 -----------------------------------------------------------------
 1/10=4,18=20,19=15,26=1,38=1/1,3;
 2/9=110,12=2,17=6,18=5,40=1/2;
 3/11=9,25=1,30=1,41=9900000,43=2,71=2,140=1/1;
 4/20=17,22=2,24=3,113=1,114=1/2;
 6/7=2,8=2,9=2,10=2,18=1/1;
 7/25=1,44=-1/16;
 1/10=4,18=20,19=15,26=1/3(3);
 2/9=110/2;
 7/8=1,9=1,25=1,44=-1/16;
 99//99;
 2/9=110/2;
 3/11=9,25=1,30=1,41=9900000,43=2,71=2,140=1/1;
 4/16=2,20=17,22=2,24=3,113=1,114=1/2;
 7/25=1,44=-1/16;
 1/10=4,18=20,19=15,26=1/3(-4);
 2/9=110/2;
 6/7=2,8=2,9=2,10=2,18=1/1;
 7/8=1,9=1,25=1,44=-1/16;
 99//99;
 Leave Link    1 at Fri Jan  3 11:23:06 2025, MaxMem=           0 cpu:               0.0 elap:               0.0
 (Enter /opt/g16/l101.exe)
 -----
 min-5
 -----
 Symbolic Z-matrix:
 Charge =  0 Multiplicity = 1
 H                    -0.0435    2.27371  -1.27921 
 H                     0.0435   -2.27371  -1.27921 
 H                    -0.85608   1.02191  -0.04966 
 H                     0.85608  -1.02191  -0.04966 
 S                     0.01356   2.03783   0.03775 
 S                    -0.01356  -2.03783   0.03775 
 
 Add virtual bond connecting atoms H4         and H3         Dist= 5.04D+00.
 ITRead=  0  0  0  0  0  0
 MicOpt= -1 -1 -1 -1 -1 -1
 NAtoms=      6 NQM=        6 NQMF=       0 NMMI=      0 NMMIF=      0
                NMic=       0 NMicF=      0.
                    Isotopes and Nuclear Properties:
 (Nuclear quadrupole moments (NQMom) in fm**2, nuclear magnetic moments (NMagM)
  in nuclear magnetons)

  Atom         1           2           3           4           5           6
 IAtWgt=           1           1           1           1          32          32
 AtmWgt=   1.0078250   1.0078250   1.0078250   1.0078250  31.9720718  31.9720718
 NucSpn=           1           1           1           1           0           0
 AtZEff=  -0.0000000  -0.0000000  -0.0000000  -0.0000000  -0.0000000  -0.0000000
 NQMom=    0.0000000   0.0000000   0.0000000   0.0000000   0.0000000   0.0000000
 NMagM=    2.7928460   2.7928460   2.7928460   2.7928460   0.0000000   0.0000000
 AtZNuc=   1.0000000   1.0000000   1.0000000   1.0000000  16.0000000  16.0000000
 Leave Link  101 at Fri Jan  3 11:23:06 2025, MaxMem=   104857600 cpu:               0.1 elap:               0.1
 (Enter /opt/g16/l103.exe)

 GradGradGradGradGradGradGradGradGradGradGradGradGradGradGradGradGradGrad
 Berny optimization.
 Initialization pass.
                           ----------------------------
                           !    Initial Parameters    !
                           ! (Angstroms and Degrees)  !
 --------------------------                            --------------------------
 ! Name  Definition              Value          Derivative Info.                !
 --------------------------------------------------------------------------------
 ! R1    R(1,5)                  1.3391         calculate D2E/DX2 analytically  !
 ! R2    R(2,6)                  1.3391         calculate D2E/DX2 analytically  !
 ! R3    R(3,4)                  2.6662         calculate D2E/DX2 analytically  !
 ! R4    R(3,5)                  1.3401         calculate D2E/DX2 analytically  !
 ! R5    R(4,6)                  1.3401         calculate D2E/DX2 analytically  !
 ! A1    A(4,3,5)               99.4624         calculate D2E/DX2 analytically  !
 ! A2    A(3,4,6)               99.4624         calculate D2E/DX2 analytically  !
 ! A3    A(1,5,3)               92.3917         calculate D2E/DX2 analytically  !
 ! A4    A(2,6,4)               92.3917         calculate D2E/DX2 analytically  !
 ! D1    D(5,3,4,6)            172.4169         calculate D2E/DX2 analytically  !
 ! D2    D(4,3,5,1)             99.0796         calculate D2E/DX2 analytically  !
 ! D3    D(3,4,6,2)             99.0796         calculate D2E/DX2 analytically  !
 --------------------------------------------------------------------------------
 Trust Radius=3.00D-01 FncErr=1.00D-07 GrdErr=1.00D-07 EigMax=2.50D+02 EigMin=1.00D-04
 Number of steps in this run=     22 maximum allowed number of steps=    100.
 GradGradGradGradGradGradGradGradGradGradGradGradGradGradGradGradGradGrad

 Leave Link  103 at Fri Jan  3 11:23:06 2025, MaxMem=   104857600 cpu:               0.0 elap:               0.0
 (Enter /opt/g16/l202.exe)
                          Input orientation:                          
 ---------------------------------------------------------------------
 Center     Atomic      Atomic             Coordinates (Angstroms)
 Number     Number       Type             X           Y           Z
 ---------------------------------------------------------------------
      1          1           0       -0.043501    2.273708   -1.279212
      2          1           0        0.043501   -2.273708   -1.279212
      3          1           0       -0.856076    1.021914   -0.049663
      4          1           0        0.856076   -1.021914   -0.049663
      5         16           0        0.013556    2.037833    0.037751
      6         16           0       -0.013556   -2.037833    0.037751
 ---------------------------------------------------------------------
                    Distance matrix (angstroms):
                    1          2          3          4          5
     1  H    0.000000
     2  H    4.548249   0.000000
     3  H    1.933664   3.630724   0.000000
     4  H    3.630724   1.933664   2.666215   0.000000
     5  S    1.339136   4.508290   1.340146   3.174828   0.000000
     6  S    4.508290   1.339136   3.174828   1.340146   4.075756
                    6
     6  S    0.000000
 Stoichiometry    H4S2
 Framework group  C2[X(H4S2)]
 Deg. of freedom     7
 Full point group                 C2      NOp   2
 Largest Abelian subgroup         C2      NOp   2
 Largest concise Abelian subgroup C2      NOp   2
                         Standard orientation:                         
 ---------------------------------------------------------------------
 Center     Atomic      Atomic             Coordinates (Angstroms)
 Number     Number       Type             X           Y           Z
 ---------------------------------------------------------------------
      1          1           0        0.058625    2.273369    1.238942
      2          1           0       -0.058625   -2.273369    1.238942
      3          1           0        0.862855    1.016197    0.009393
      4          1           0       -0.862855   -1.016197    0.009393
      5         16           0       -0.000000    2.037878   -0.078021
      6         16           0       -0.000000   -2.037878   -0.078021
 ---------------------------------------------------------------------
 Rotational constants (GHZ):         103.4324940           1.8077467           1.7955384
 Leave Link  202 at Fri Jan  3 11:23:06 2025, MaxMem=   104857600 cpu:               0.0 elap:               0.0
 (Enter /opt/g16/l301.exe)
 Standard basis: STO-3G (5D, 7F)
 Ernie: Thresh=  0.10000D-02 Tol=  0.10000D-05 Strict=F.
 There are    11 symmetry adapted cartesian basis functions of A   symmetry.
 There are    11 symmetry adapted cartesian basis functions of B   symmetry.
 There are    11 symmetry adapted basis functions of A   symmetry.
 There are    11 symmetry adapted basis functions of B   symmetry.
    22 basis functions,    66 primitive gaussians,    22 cartesian basis functions
    18 alpha electrons       18 beta electrons
       nuclear repulsion energy        68.7622653089 Hartrees.
 IExCor=    0 DFT=F Ex=HF Corr=None ExCW=0 ScaHFX=  1.000000
 ScaDFX=  1.000000  1.000000  1.000000  1.000000 ScalE2=  1.000000  1.000000
 IRadAn=      5 IRanWt=     -1 IRanGd=            0 ICorTp=0 IEmpDi=  4
 NAtoms=    6 NActive=    6 NUniq=    3 SFac= 4.00D+00 NAtFMM=   60 NAOKFM=F Big=F
 Integral buffers will be    131072 words long.
 Raffenetti 1 integral format.
 Two-electron integral symmetry is turned on.
 Leave Link  301 at Fri Jan  3 11:23:06 2025, MaxMem=   104857600 cpu:               0.0 elap:               0.0
 (Enter /opt/g16/l402.exe)
 External calculation of energy, first and second derivatives.
 Running external command "python3 -u ../pes/h4s2_pes.py R"
         input file       "/home/jhli/scratch/g16/Gau-114563.EIn"
         output file      "/home/jhli/scratch/g16/Gau-114563.EOu"
         message file     "/home/jhli/scratch/g16/Gau-114563.EMs"
         fchk file        "/home/jhli/scratch/g16/Gau-114563.EFC"
         mat. el file     "/home/jhli/scratch/g16/Gau-114563.EUF"
 initialization done
 Recovered energy= -797.919968620     dipole=      0.000000000000      0.000000000000      0.000000000000
 Energy=    -797.919969     NIter=   0.
 Dipole moment=       0.000000       0.000000       0.000000
 Leave Link  402 at Fri Jan  3 11:23:07 2025, MaxMem=   104857600 cpu:               0.0 elap:               0.2
 (Enter /opt/g16/l601.exe)
 Leave Link  601 at Fri Jan  3 11:23:07 2025, MaxMem=   104857600 cpu:               0.0 elap:               0.0
 (Enter /opt/g16/l716.exe)
 Dipole        = 0.00000000D+00 0.00000000D+00 0.00000000D+00
 ***** Axes restored to original set *****
 -------------------------------------------------------------------
 Center     Atomic                   Forces (Hartrees/Bohr)
 Number     Number              X              Y              Z
 -------------------------------------------------------------------
      1        1           0.000026406    0.000018326   -0.000081504
      2        1          -0.000026406   -0.000018326   -0.000081504
      3        1          -0.000110625   -0.000099176    0.000010047
      4        1           0.000110625    0.000099176    0.000010047
      5       16           0.000063734    0.000124562    0.000072906
      6       16          -0.000063734   -0.000124562    0.000072906
 -------------------------------------------------------------------
 Cartesian Forces:  Max     0.000124562 RMS     0.000077991
 Force constants in Cartesian coordinates: 
                1             2             3             4             5 
      1  0.119305D-01
      2  0.112916D-01  0.246321D-01
      3  0.108728D-01 -0.483523D-01  0.265573D+00
      4  0.105735D-03  0.894557D-04 -0.153399D-04  0.119305D-01
      5  0.894561D-04 -0.162981D-03 -0.686811D-04  0.112916D-01  0.246321D-01
      6  0.153410D-04  0.686804D-04 -0.210845D-03 -0.108728D-01  0.483523D-01
      7 -0.378832D-03 -0.145740D-03 -0.105642D-02 -0.563532D-04 -0.173223D-03
      8 -0.435310D-02 -0.491029D-02 -0.111684D-02 -0.797600D-04  0.217966D-04
      9  0.172175D-01  0.205799D-01 -0.105435D-02  0.263037D-03 -0.199703D-03
     10 -0.563539D-04 -0.173223D-03  0.423051D-04 -0.378832D-03 -0.145740D-03
     11 -0.797580D-04  0.217962D-04  0.187900D-03 -0.435310D-02 -0.491028D-02
     12 -0.263035D-03  0.199701D-03  0.204511D-04 -0.172175D-01 -0.205799D-01
     13 -0.115618D-01 -0.110764D-01 -0.976605D-02 -0.380642D-04  0.153916D-04
     14 -0.687374D-02 -0.195620D-01  0.493686D-01 -0.738812D-04 -0.179863D-04
     15 -0.279446D-01  0.278479D-01 -0.264500D+00 -0.100679D-03  0.344284D-03
     16 -0.380643D-04  0.153922D-04 -0.766536D-04 -0.115618D-01 -0.110764D-01
     17 -0.738820D-04 -0.179850D-04 -0.183119D-04 -0.687375D-02 -0.195620D-01
     18  0.100680D-03 -0.344283D-03  0.171572D-03  0.279446D-01 -0.278479D-01
                6             7             8             9            10 
      6  0.265573D+00
      7 -0.423059D-04  0.116087D+00
      8 -0.187900D-03  0.133886D+00  0.158405D+00
      9  0.204514D-04  0.110912D-01  0.692354D-02  0.277249D-01
     10  0.105642D-02 -0.768476D-03  0.716021D-03 -0.962797D-04  0.116087D+00
     11  0.111684D-02  0.716021D-03 -0.480177D-03 -0.521149D-04  0.133886D+00
     12 -0.105435D-02  0.962807D-04  0.521137D-04  0.123540D-03 -0.110912D-01
     13  0.766532D-04 -0.114949D+00 -0.129946D+00 -0.282785D-01  0.668480D-04
     14  0.183103D-04 -0.133871D+00 -0.153062D+00 -0.274655D-01 -0.412166D-03
     15  0.171571D-03 -0.100190D-01 -0.584705D-02 -0.264524D-01  0.708264D-04
     16  0.976605D-02  0.668464D-04 -0.224193D-03 -0.195346D-03 -0.114949D+00
     17 -0.493686D-01 -0.412166D-03  0.252878D-04  0.214730D-03 -0.133871D+00
     18 -0.264500D+00 -0.708267D-04  0.175151D-03 -0.361925D-03  0.100190D-01
               11            12            13            14            15 
     11  0.158405D+00
     12 -0.692354D-02  0.277249D-01
     13 -0.224194D-03  0.195345D-03  0.126308D+00
     14  0.252882D-04 -0.214732D-03  0.140840D+00  0.174541D+00
     15 -0.175150D-03 -0.361925D-03  0.378830D-01 -0.219383D-01  0.290769D+00
     16 -0.129946D+00  0.282785D-01  0.172173D-03  0.390000D-03  0.108108D-03
     17 -0.153062D+00  0.274655D-01  0.389998D-03 -0.192554D-02 -0.232988D-03
     18  0.584705D-02 -0.264524D-01 -0.108107D-03  0.232988D-03  0.373753D-03
               16            17            18 
     16  0.126308D+00
     17  0.140840D+00  0.174541D+00
     18 -0.378830D-01  0.219383D-01  0.290769D+00
 FormGI is forming the generalized inverse of G from B-inverse, IUseBI=4.
 Force constants in internal coordinates: 
                1             2             3             4             5 
      1  0.275129D+00
      2 -0.219036D-03  0.275129D+00
      3  0.118615D-03  0.118616D-03  0.194098D-02
      4 -0.117258D-02 -0.108663D-03  0.115869D-02  0.274197D+00
      5 -0.108664D-03 -0.117258D-02  0.115869D-02  0.726304D-03  0.274197D+00
      6  0.127876D-03  0.125864D-03  0.233855D-02  0.171514D-02  0.304005D-02
      7  0.125861D-03  0.127877D-03  0.233855D-02  0.304005D-02  0.171514D-02
      8  0.983476D-02 -0.543319D-04  0.217214D-03  0.952314D-02  0.488589D-04
      9 -0.543320D-04  0.983475D-02  0.217215D-03  0.488616D-04  0.952313D-02
     10  0.871562D-04  0.871565D-04 -0.262919D-04 -0.966463D-04 -0.966440D-04
     11  0.113642D-03  0.691613D-04 -0.283431D-04  0.942215D-04  0.223867D-03
     12  0.691597D-04  0.113642D-03 -0.283409D-04  0.223870D-03  0.942220D-04
                6             7             8             9            10 
      6  0.656253D-02
      7  0.750106D-02  0.656254D-02
      8  0.547688D-03  0.116509D-02  0.171775D+00
      9  0.116509D-02  0.547690D-03 -0.153432D-03  0.171775D+00
     10 -0.158627D-03 -0.158629D-03  0.112244D-02  0.112244D-02  0.165263D-02
     11  0.296763D-03  0.514747D-03 -0.100369D-02  0.959907D-03  0.893730D-03
     12  0.514754D-03  0.296763D-03  0.959909D-03 -0.100369D-02  0.893731D-03
               11            12 
     11  0.146575D-02
     12  0.653070D-03  0.146575D-02
 Leave Link  716 at Fri Jan  3 11:23:07 2025, MaxMem=   104857600 cpu:               0.0 elap:               0.0
 (Enter /opt/g16/l103.exe)

 GradGradGradGradGradGradGradGradGradGradGradGradGradGradGradGradGradGrad
 Berny optimization.
 Red2BG is reusing G-inverse.
 Internal  Forces:  Max     0.000168454 RMS     0.000086431
 Search for a local minimum.
 Step number   1 out of a maximum of   22
 All quantities printed in internal units (Hartrees-Bohrs-Radians)
 RMS Force = .86431D-04 SwitMx=.10000D-02 MixMth= 2
 Mixed Optimization -- En-DIIS/RFO-DIIS
 Second derivative matrix not updated -- analytic derivatives used.
 The second derivative matrix:
                          R1        R2        R3        R4        R5
           R1           0.27513
           R2          -0.00022   0.27513
           R3           0.00012   0.00012   0.00194
           R4          -0.00117  -0.00011   0.00116   0.27420
           R5          -0.00011  -0.00117   0.00116   0.00073   0.27420
           A1           0.00013   0.00013   0.00234   0.00172   0.00304
           A2           0.00013   0.00013   0.00234   0.00304   0.00172
           A3           0.00983  -0.00005   0.00022   0.00952   0.00005
           A4          -0.00005   0.00983   0.00022   0.00005   0.00952
           D1           0.00009   0.00009  -0.00003  -0.00010  -0.00010
           D2           0.00011   0.00007  -0.00003   0.00009   0.00022
           D3           0.00007   0.00011  -0.00003   0.00022   0.00009
                          A1        A2        A3        A4        D1
           A1           0.00656
           A2           0.00750   0.00656
           A3           0.00055   0.00117   0.17178
           A4           0.00117   0.00055  -0.00015   0.17178
           D1          -0.00016  -0.00016   0.00112   0.00112   0.00165
           D2           0.00030   0.00051  -0.00100   0.00096   0.00089
           D3           0.00051   0.00030   0.00096  -0.00100   0.00089
                          D2        D3
           D2           0.00147
           D3           0.00065   0.00147
 ITU=  0
     Eigenvalues ---   -0.00098   0.00050   0.00082   0.00114   0.00316
     Eigenvalues ---    0.01484   0.16984   0.17014   0.27434   0.27550
     Eigenvalues ---    0.27624   0.27630
 Eigenvalue     1 is  -9.76D-04 should be greater than     0.000000 Eigenvector:
                          A1        A2        D3        D2        A3
   1                   -0.70141   0.70141   0.08942  -0.08942  -0.00335
                          A4        R4        R5        R1        R2
   1                    0.00335  -0.00331   0.00331   0.00013  -0.00013
 RFO step:  Lambda=-9.75519984D-04 EMin=-9.75517003D-04
 I=     1 Eig=   -9.76D-04 Dot1= -2.26D-11
 I=     1 Stepn=  6.00D-01 RXN=   6.00D-01 EDone=F
 Mixed    1 eigenvectors in step.  Raw Step.Grad= -2.26D-11.
 RFO eigenvector is Hessian eigenvector with negative curvature.
 Taking step of  6.00D-01 in eigenvector direction(s).  Step.Grad= -4.22D-05.
 Linear search not attempted -- first point.
 Maximum step size (   0.300) exceeded in Quadratic search.
    -- Step size not scaled.
 Iteration  1 RMS(Cart)=  0.16989798 RMS(Int)=  0.09880613
 Iteration  2 RMS(Cart)=  0.17940976 RMS(Int)=  0.02862885
 Iteration  3 RMS(Cart)=  0.04885629 RMS(Int)=  0.00111902
 Iteration  4 RMS(Cart)=  0.00106585 RMS(Int)=  0.00000072
 Iteration  5 RMS(Cart)=  0.00000141 RMS(Int)=  0.00000000
 Iteration  6 RMS(Cart)=  0.00000000 RMS(Int)=  0.00000000
 ITry= 1 IFail=0 DXMaxC= 5.57D-01 DCOld= 1.00D+10 DXMaxT= 3.00D-01 DXLimC= 3.00D+00 Rises=F
 ClnCor:  largest displacement from symmetrization is 1.40D+00 for atom     4.
          Exceeds limit of 1.00D-01 so symmetrization was rejected.
 Variable       Old X    -DE/DX   Delta X   Delta X   Delta X     New X
                                 (Linear)    (Quad)   (Total)
    R1        2.53060   0.00008   0.00000   0.00008   0.00008   2.53068
    R2        2.53060   0.00008   0.00000  -0.00008  -0.00008   2.53052
    R3        5.03842   0.00004   0.00000   0.00000   0.00000   5.03842
    R4        2.53251   0.00017   0.00000  -0.00199  -0.00199   2.53052
    R5        2.53251   0.00017   0.00000   0.00199   0.00199   2.53450
    A1        1.73595   0.00004   0.00000  -0.42085  -0.42085   1.31510
    A2        1.73595   0.00004   0.00000   0.42085   0.42085   2.15679
    A3        1.61254   0.00006   0.00000  -0.00201  -0.00201   1.61053
    A4        1.61254   0.00006   0.00000   0.00201   0.00201   1.61455
    D1        3.00924  -0.00002   0.00000   0.00000   0.00000   3.00924
    D2        1.72927  -0.00005   0.00000  -0.05365  -0.05365   1.67561
    D3        1.72927  -0.00005   0.00000   0.05365   0.05365   1.78292
         Item               Value     Threshold  Converged?
 Maximum Force            0.000168     0.000450     YES
 RMS     Force            0.000086     0.000300     YES
 Maximum Displacement     0.557095     0.001800     NO 
 RMS     Displacement     0.370050     0.001200     NO 
 Predicted change in Energy=-1.755930D-04
 GradGradGradGradGradGradGradGradGradGradGradGradGradGradGradGradGradGrad

 Leave Link  103 at Fri Jan  3 11:23:07 2025, MaxMem=   104857600 cpu:               0.0 elap:               0.0
 (Enter /opt/g16/l202.exe)
                          Input orientation:                          
 ---------------------------------------------------------------------
 Center     Atomic      Atomic             Coordinates (Angstroms)
 Number     Number       Type             X           Y           Z
 ---------------------------------------------------------------------
      1          1           0        0.038673    2.028779   -1.296836
      2          1           0        0.157910   -2.273551   -1.309156
      3          1           0       -1.070159    1.294833    0.103470
      4          1           0        0.561275   -0.802480   -0.116540
      5         16           0        0.156068    1.826688    0.021788
      6         16           0        0.156234   -2.074268    0.015026
 ---------------------------------------------------------------------
                    Distance matrix (angstroms):
                    1          2          3          4          5
     1  H    0.000000
     2  H    4.304000   0.000000
     3  H    1.931072   4.029520   0.000000
     4  H    3.111630   1.936256   2.666215   0.000000
     5  S    1.339176   4.310845   1.339095   2.663805   0.000000
     6  S    4.309269   1.339096   3.586461   1.341198   3.900963
                    6
     6  S    0.000000
 Stoichiometry    H4S2
 Framework group  C1[X(H4S2)]
 Deg. of freedom    12
 Full point group                 C1      NOp   1
 Omega: Change in point group or standard orientation.

 Old FWG=C02  [X(H4S2)]
 New FWG=C01  [X(H4S2)]
 RotChk:  IX=0 Diff= 2.42D+00
 Largest Abelian subgroup         C1      NOp   1
 Largest concise Abelian subgroup C1      NOp   1
                         Standard orientation:                         
 ---------------------------------------------------------------------
 Center     Atomic      Atomic             Coordinates (Angstroms)
 Number     Number       Type             X           Y           Z
 ---------------------------------------------------------------------
      1          1           0        2.128383    1.245463    0.105053
      2          1           0       -2.175374    1.242992    0.059357
      3          1           0        1.418943   -0.201500    1.169024
      4          1           0       -0.706828    0.074210   -0.416468
      5         16           0        1.929407   -0.068299   -0.061772
      6         16           0       -1.970978   -0.079274    0.004461
 ---------------------------------------------------------------------
 Rotational constants (GHZ):          99.1541626           1.9682823           1.9547591
 Leave Link  202 at Fri Jan  3 11:23:07 2025, MaxMem=   104857600 cpu:               0.0 elap:               0.0
 (Enter /opt/g16/l301.exe)
 Standard basis: STO-3G (5D, 7F)
 Ernie: Thresh=  0.10000D-02 Tol=  0.10000D-05 Strict=F.
 There are    22 symmetry adapted cartesian basis functions of A   symmetry.
 There are    22 symmetry adapted basis functions of A   symmetry.
    22 basis functions,    66 primitive gaussians,    22 cartesian basis functions
    18 alpha electrons       18 beta electrons
       nuclear repulsion energy        70.6463553171 Hartrees.
 IExCor=    0 DFT=F Ex=HF Corr=None ExCW=0 ScaHFX=  1.000000
 ScaDFX=  1.000000  1.000000  1.000000  1.000000 ScalE2=  1.000000  1.000000
 IRadAn=      5 IRanWt=     -1 IRanGd=            0 ICorTp=0 IEmpDi=  4
 NAtoms=    6 NActive=    6 NUniq=    6 SFac= 1.00D+00 NAtFMM=   60 NAOKFM=F Big=F
 Integral buffers will be    131072 words long.
 Raffenetti 1 integral format.
 Two-electron integral symmetry is turned on.
 Leave Link  301 at Fri Jan  3 11:23:07 2025, MaxMem=   104857600 cpu:               0.0 elap:               0.0
 (Enter /opt/g16/l402.exe)
 External calculation of energy, first and second derivatives.
 Running external command "python3 -u ../pes/h4s2_pes.py R"
         input file       "/home/jhli/scratch/g16/Gau-114563.EIn"
         output file      "/home/jhli/scratch/g16/Gau-114563.EOu"
         message file     "/home/jhli/scratch/g16/Gau-114563.EMs"
         fchk file        "/home/jhli/scratch/g16/Gau-114563.EFC"
         mat. el file     "/home/jhli/scratch/g16/Gau-114563.EUF"
 initialization done
 Recovered energy= -797.919725399     dipole=      0.000000000000      0.000000000000      0.000000000000
 Energy=    -797.919725     NIter=   0.
 Dipole moment=       0.000000       0.000000       0.000000
 Leave Link  402 at Fri Jan  3 11:23:07 2025, MaxMem=   104857600 cpu:               0.0 elap:               0.2
 (Enter /opt/g16/l716.exe)
 Dipole        = 0.00000000D+00 0.00000000D+00 0.00000000D+00
 ***** Axes restored to original set *****
 -------------------------------------------------------------------
 Center     Atomic                   Forces (Hartrees/Bohr)
 Number     Number              X              Y              Z
 -------------------------------------------------------------------
      1        1           0.000064554    0.000066673   -0.000126537
      2        1          -0.000032330   -0.000129334   -0.000083768
      3        1          -0.000346159   -0.000085491    0.000090601
      4        1           0.000157822   -0.000202128    0.000056978
      5       16           0.000182883    0.001823750    0.000064373
      6       16          -0.000025059   -0.001473250    0.000000956
 -------------------------------------------------------------------
 Cartesian Forces:  Max     0.001823750 RMS     0.000567084
 Force constants in Cartesian coordinates: 
                1             2             3             4             5 
      1  0.245153D-01
      2  0.617758D-02  0.111038D-01
      3  0.195918D-01 -0.427222D-01  0.267062D+00
      4  0.129026D-03  0.539644D-04 -0.794469D-05  0.252071D-02
      5  0.131293D-03 -0.249460D-03 -0.806171D-04  0.772854D-02  0.305261D-01
      6 -0.265020D-04 -0.531598D-05 -0.187641D-03 -0.310980D-03  0.406121D-01
      7 -0.210423D-03  0.226254D-03 -0.154557D-02  0.206230D-04 -0.182399D-03
      8 -0.482895D-02 -0.208001D-02  0.136048D-03 -0.297178D-04  0.306131D-04
      9  0.245124D-01  0.110111D-01 -0.436017D-02  0.141317D-03 -0.594460D-05
     10 -0.131487D-03 -0.834994D-04 -0.489494D-04 -0.252334D-03 -0.555287D-03
     11 -0.105701D-03  0.579687D-04  0.253163D-03 -0.180822D-02 -0.549016D-02
     12 -0.432648D-03  0.752764D-03  0.343900D-04 -0.815316D-02 -0.257649D-01
     13 -0.242411D-01 -0.632889D-02 -0.179886D-01 -0.102039D-03  0.315731D-04
     14 -0.136421D-02 -0.891592D-02  0.425072D-01 -0.116522D-03 -0.148427D-03
     15 -0.438678D-01  0.314565D-01 -0.262694D+00 -0.532225D-04  0.467454D-03
     16 -0.604628D-04 -0.455946D-04 -0.199541D-05 -0.231662D-02 -0.715263D-02
     17 -0.912637D-05  0.831089D-04 -0.934797D-04 -0.582821D-02 -0.246680D-01
     18  0.221487D-03 -0.492841D-03  0.145599D-03  0.838437D-02 -0.152269D-01
                6             7             8             9            10 
      6  0.268375D+00
      7 -0.611374D-04  0.230749D+00
      8 -0.102550D-03  0.993197D-01  0.449924D-01
      9 -0.374110D-04 -0.154931D-01 -0.117732D-01  0.278518D-01
     10  0.523009D-03 -0.843426D-03  0.118518D-02  0.352613D-04  0.267830D-01
     11  0.163422D-02  0.298319D-03 -0.260634D-03 -0.140103D-03  0.771456D-01
     12 -0.322886D-03  0.186519D-03 -0.175584D-03  0.401836D-04 -0.747360D-02
     13  0.114007D-03 -0.229979D+00 -0.952489D-01 -0.904979D-02 -0.212203D-03
     14 -0.359368D-05 -0.994208D-01 -0.428638D-01  0.719200D-03 -0.603873D-03
     15  0.216448D-03  0.169962D-01  0.117328D-01 -0.234345D-01  0.126805D-03
     16 -0.239131D-03  0.264277D-03 -0.398606D-03 -0.146805D-03 -0.253443D-01
     17 -0.421344D-01 -0.240648D-03  0.180365D-03  0.189791D-03 -0.770886D-01
     18 -0.268044D+00 -0.839294D-04  0.182218D-03 -0.598177D-04  0.683790D-02
               11            12            13            14            15 
     11  0.243901D+00
     12 -0.190952D-01  0.304605D-01
     13  0.283922D-04  0.354612D-03  0.254074D+00
     14 -0.148980D-02 -0.519331D-03  0.101110D+00  0.577573D-01
     15 -0.216420D-03 -0.851465D-03  0.267606D-01 -0.429335D-01  0.286041D+00
     16 -0.755580D-01  0.155169D-01  0.459575D-03  0.396337D-03  0.393113D-04
     17 -0.236719D+00  0.448026D-01  0.405884D-03 -0.433611D-02 -0.507964D-03
     18  0.175660D-01 -0.293605D-01 -0.188575D-03  0.230109D-03  0.721850D-03
               16            17            18 
     16  0.269988D-01
     17  0.827593D-01  0.265458D+00
     18 -0.151691D-01 -0.225928D-02  0.296598D+00
 FormGI is forming the generalized inverse of G from B-inverse, IUseBI=4.
 Force constants in internal coordinates: 
                1             2             3             4             5 
      1  0.275287D+00
      2 -0.187283D-03  0.275056D+00
      3  0.101625D-03  0.139941D-03  0.434256D-02
      4 -0.120731D-02 -0.694406D-04  0.149351D-02  0.275839D+00
      5 -0.133739D-03 -0.114319D-02  0.354950D-02  0.109685D-02  0.272695D+00
      6  0.185748D-03  0.255123D-03  0.109142D-01  0.415065D-02  0.106948D-01
      7 -0.777405D-04  0.185897D-03  0.145060D-02  0.227087D-02  0.106706D-02
      8  0.999225D-02  0.408408D-04 -0.488962D-04  0.980933D-02 -0.172521D-03
      9 -0.118896D-04  0.995962D-02  0.622357D-03  0.102302D-03  0.913430D-02
     10  0.107575D-03  0.160188D-03  0.143153D-03 -0.391585D-04 -0.118932D-03
     11  0.270084D-03  0.170000D-03  0.284623D-04  0.225453D-03  0.428053D-03
     12  0.287508D-05  0.518179D-04 -0.553776D-04  0.398334D-04  0.488207D-04
                6             7             8             9            10 
      6  0.399471D-01
      7  0.936490D-02  0.658030D-02
      8  0.529240D-03  0.438440D-03  0.172993D+00
      9  0.264888D-02  0.789604D-03 -0.416311D-03  0.168816D+00
     10  0.246956D-03 -0.253066D-04  0.724970D-03  0.219995D-02  0.228660D-02
     11  0.939798D-03  0.551184D-03 -0.135857D-02  0.174336D-02  0.172169D-02
     12  0.267325D-03  0.373488D-03  0.744447D-03 -0.898217D-03  0.263029D-03
               11            12 
     11  0.304032D-02
     12  0.558628D-03  0.413146D-03
 Leave Link  716 at Fri Jan  3 11:23:07 2025, MaxMem=   104857600 cpu:               0.0 elap:               0.0
 (Enter /opt/g16/l103.exe)

 GradGradGradGradGradGradGradGradGradGradGradGradGradGradGradGradGradGrad
 Berny optimization.
 Using GEDIIS/GDIIS optimizer.
 Red2BG is reusing G-inverse.
 Internal  Forces:  Max     0.004110462 RMS     0.001408139
 Search for a local minimum.
 Step number   2 out of a maximum of   22
 All quantities printed in internal units (Hartrees-Bohrs-Radians)
 RMS Force = .14081D-02 SwitMx=.10000D-02 MixMth= 1
 Mixed Optimization -- RFO/linear search
 Second derivative matrix not updated -- analytic derivatives used.
 The second derivative matrix:
                          R1        R2        R3        R4        R5
           R1           0.27529
           R2          -0.00019   0.27506
           R3           0.00010   0.00014   0.00434
           R4          -0.00121  -0.00007   0.00149   0.27584
           R5          -0.00013  -0.00114   0.00355   0.00110   0.27269
           A1           0.00019   0.00026   0.01091   0.00415   0.01069
           A2          -0.00008   0.00019   0.00145   0.00227   0.00107
           A3           0.00999   0.00004  -0.00005   0.00981  -0.00017
           A4          -0.00001   0.00996   0.00062   0.00010   0.00913
           D1           0.00011   0.00016   0.00014  -0.00004  -0.00012
           D2           0.00027   0.00017   0.00003   0.00023   0.00043
           D3           0.00000   0.00005  -0.00006   0.00004   0.00005
                          A1        A2        A3        A4        D1
           A1           0.03995
           A2           0.00936   0.00658
           A3           0.00053   0.00044   0.17299
           A4           0.00265   0.00079  -0.00042   0.16882
           D1           0.00025  -0.00003   0.00072   0.00220   0.00229
           D2           0.00094   0.00055  -0.00136   0.00174   0.00172
           D3           0.00027   0.00037   0.00074  -0.00090   0.00026
                          D2        D3
           D2           0.00304
           D3           0.00056   0.00041
 ITU=  0  0
 Use linear search instead of GDIIS.
     Eigenvalues ---    0.00027   0.00078   0.00099   0.00428   0.00487
     Eigenvalues ---    0.04465   0.16713   0.17115   0.27353   0.27587
     Eigenvalues ---    0.27632   0.27747
 RFO step:  Lambda=-3.19323252D-04 EMin= 2.65712684D-04
 Quintic linear search produced a step of -0.62467.
 Maximum step size (   0.300) exceeded in Quadratic search.
    -- Step size scaled by   0.710
 Iteration  1 RMS(Cart)=  0.17431402 RMS(Int)=  0.01500640
 Iteration  2 RMS(Cart)=  0.01195494 RMS(Int)=  0.00004900
 Iteration  3 RMS(Cart)=  0.00005103 RMS(Int)=  0.00000000
 Iteration  4 RMS(Cart)=  0.00000000 RMS(Int)=  0.00000000
 ITry= 1 IFail=0 DXMaxC= 3.36D-01 DCOld= 1.00D+10 DXMaxT= 3.00D-01 DXLimC= 3.00D+00 Rises=F
 Variable       Old X    -DE/DX   Delta X   Delta X   Delta X     New X
                                 (Linear)    (Quad)   (Total)
    R1        2.53068   0.00013  -0.00005   0.00032   0.00027   2.53095
    R2        2.53052   0.00010   0.00005   0.00007   0.00012   2.53065
    R3        5.03842   0.00148  -0.00000   0.23167   0.23167   5.27009
    R4        2.53052   0.00098   0.00124  -0.00014   0.00110   2.53162
    R5        2.53450   0.00153  -0.00124   0.00146   0.00022   2.53472
    A1        1.31510   0.00411   0.26289  -0.08428   0.17861   1.49371
    A2        2.15679   0.00111  -0.26289   0.17085  -0.09204   2.06475
    A3        1.61053   0.00021   0.00125  -0.00022   0.00103   1.61156
    A4        1.61455   0.00031  -0.00125   0.00042  -0.00084   1.61371
    D1        3.00924   0.00008  -0.00000   0.03040   0.03040   3.03965
    D2        1.67561   0.00004   0.03352  -0.04517  -0.01165   1.66396
    D3        1.78292  -0.00000  -0.03352   0.02062  -0.01290   1.77002
         Item               Value     Threshold  Converged?
 Maximum Force            0.004110     0.000450     NO 
 RMS     Force            0.001408     0.000300     NO 
 Maximum Displacement     0.336102     0.001800     NO 
 RMS     Displacement     0.179650     0.001200     NO 
 Predicted change in Energy=-3.152584D-04
 GradGradGradGradGradGradGradGradGradGradGradGradGradGradGradGradGradGrad

 Leave Link  103 at Fri Jan  3 11:23:07 2025, MaxMem=   104857600 cpu:               0.0 elap:               0.0
 (Enter /opt/g16/l202.exe)
                          Input orientation:                          
 ---------------------------------------------------------------------
 Center     Atomic      Atomic             Coordinates (Angstroms)
 Number     Number       Type             X           Y           Z
 ---------------------------------------------------------------------
      1          1           0        0.006158    2.180205   -1.296343
      2          1           0        0.145401   -2.362826   -1.305520
      3          1           0       -1.022328    1.279758    0.069736
      4          1           0        0.656583   -0.940898   -0.095804
      5         16           0        0.103576    2.004546    0.027829
      6         16           0        0.110611   -2.160785    0.017854
 ---------------------------------------------------------------------
                    Distance matrix (angstroms):
                    1          2          3          4          5
     1  H    0.000000
     2  H    4.545173   0.000000
     3  H    1.932554   4.064890   0.000000
     4  H    3.406703   1.935613   2.788809   0.000000
     5  S    1.339320   4.566564   1.339677   2.999456   0.000000
     6  S    4.536763   1.339160   3.622648   1.341316   4.165348
                    6
     6  S    0.000000
 Stoichiometry    H4S2
 Framework group  C1[X(H4S2)]
 Deg. of freedom    12
 Full point group                 C1      NOp   1
 RotChk:  IX=0 Diff= 2.64D-03
 Largest Abelian subgroup         C1      NOp   1
 Largest concise Abelian subgroup C1      NOp   1
                         Standard orientation:                         
 ---------------------------------------------------------------------
 Center     Atomic      Atomic             Coordinates (Angstroms)
 Number     Number       Type             X           Y           Z
 ---------------------------------------------------------------------
      1          1           0        2.241422    1.249587    0.097557
      2          1           0       -2.303318    1.243286    0.035135
      3          1           0        1.364010   -0.162643    1.082705
      4          1           0       -0.885467    0.062763   -0.550238
      5         16           0        2.069408   -0.070143   -0.052457
      6         16           0       -2.095448   -0.079419    0.010884
 ---------------------------------------------------------------------
 Rotational constants (GHZ):         100.9577883           1.7309827           1.7199602
 Leave Link  202 at Fri Jan  3 11:23:07 2025, MaxMem=   104857600 cpu:               0.0 elap:               0.0
 (Enter /opt/g16/l301.exe)
 Standard basis: STO-3G (5D, 7F)
 Ernie: Thresh=  0.10000D-02 Tol=  0.10000D-05 Strict=F.
 There are    22 symmetry adapted cartesian basis functions of A   symmetry.
 There are    22 symmetry adapted basis functions of A   symmetry.
    22 basis functions,    66 primitive gaussians,    22 cartesian basis functions
    18 alpha electrons       18 beta electrons
       nuclear repulsion energy        67.8188258341 Hartrees.
 IExCor=    0 DFT=F Ex=HF Corr=None ExCW=0 ScaHFX=  1.000000
 ScaDFX=  1.000000  1.000000  1.000000  1.000000 ScalE2=  1.000000  1.000000
 IRadAn=      5 IRanWt=     -1 IRanGd=            0 ICorTp=0 IEmpDi=  4
 NAtoms=    6 NActive=    6 NUniq=    6 SFac= 1.00D+00 NAtFMM=   60 NAOKFM=F Big=F
 Integral buffers will be    131072 words long.
 Raffenetti 1 integral format.
 Two-electron integral symmetry is turned on.
 Leave Link  301 at Fri Jan  3 11:23:07 2025, MaxMem=   104857600 cpu:               0.0 elap:               0.0
 (Enter /opt/g16/l402.exe)
 External calculation of energy, first and second derivatives.
 Running external command "python3 -u ../pes/h4s2_pes.py R"
         input file       "/home/jhli/scratch/g16/Gau-114563.EIn"
         output file      "/home/jhli/scratch/g16/Gau-114563.EOu"
         message file     "/home/jhli/scratch/g16/Gau-114563.EMs"
         fchk file        "/home/jhli/scratch/g16/Gau-114563.EFC"
         mat. el file     "/home/jhli/scratch/g16/Gau-114563.EUF"
 initialization done
 Recovered energy= -797.920011448     dipole=      0.000000000000      0.000000000000      0.000000000000
 Energy=    -797.920011     NIter=   0.
 Dipole moment=       0.000000       0.000000       0.000000
 Leave Link  402 at Fri Jan  3 11:23:07 2025, MaxMem=   104857600 cpu:               0.0 elap:               0.2
 (Enter /opt/g16/l716.exe)
 Dipole        = 0.00000000D+00 0.00000000D+00 0.00000000D+00
 ***** Axes restored to original set *****
 -------------------------------------------------------------------
 Center     Atomic                   Forces (Hartrees/Bohr)
 Number     Number              X              Y              Z
 -------------------------------------------------------------------
      1        1          -0.000004057   -0.000017005    0.000005964
      2        1          -0.000000888    0.000007550   -0.000025959
      3        1          -0.000165149    0.000008294   -0.000003058
      4        1          -0.000065119    0.000041987    0.000033984
      5       16           0.000163080   -0.000208369   -0.000010528
      6       16           0.000073370    0.000167019    0.000002306
 -------------------------------------------------------------------
 Cartesian Forces:  Max     0.000208369 RMS     0.000087873
 Force constants in Cartesian coordinates: 
                1             2             3             4             5 
      1  0.204459D-01
      2  0.962806D-02  0.132186D-01
      3  0.167119D-01 -0.376003D-01  0.268636D+00
      4  0.836229D-04  0.560558D-04 -0.417899D-05  0.472425D-02
      5  0.835968D-04 -0.149963D-03 -0.760569D-04  0.894685D-02  0.290807D-01
      6  0.923625D-05  0.241617D-04 -0.199756D-03 -0.688959D-02  0.413259D-01
      7 -0.328225D-03  0.972046D-04 -0.142199D-02 -0.594694D-05 -0.175879D-03
      8 -0.426219D-02 -0.267784D-02 -0.324831D-03 -0.370966D-04  0.994095D-05
      9  0.225260D-01  0.148298D-01 -0.352931D-02  0.135556D-03 -0.494871D-04
     10 -0.781339D-04 -0.741955D-04  0.142354D-04 -0.181266D-03 -0.141771D-03
     11 -0.564282D-04  0.424557D-04  0.245240D-03 -0.256080D-02 -0.549361D-02
     12 -0.296417D-03  0.414498D-03  0.139768D-04 -0.108456D-01 -0.246219D-01
     13 -0.200862D-01 -0.967152D-02 -0.152484D-01 -0.534143D-04  0.572080D-04
     14 -0.535084D-02 -0.105011D-01  0.378403D-01 -0.856714D-04 -0.714687D-04
     15 -0.390648D-01  0.226423D-01 -0.265090D+00 -0.564065D-04  0.296719D-03
     16 -0.355586D-04 -0.355294D-04 -0.522090D-04 -0.456734D-02 -0.876867D-02
     17 -0.410118D-04  0.678268D-04 -0.839317D-04 -0.631935D-02 -0.233749D-01
     18  0.112812D-03 -0.310583D-03  0.169344D-03  0.176610D-01 -0.168741D-01
                6             7             8             9            10 
      6  0.267958D+00
      7 -0.930997D-04  0.193993D+00
      8 -0.147195D-03  0.123997D+00  0.811387D-01
      9  0.868187D-05 -0.747992D-02 -0.959347D-02  0.272167D-01
     10  0.711049D-03 -0.645811D-03  0.782209D-03 -0.214709D-05  0.464231D-01
     11  0.154863D-02  0.466217D-03 -0.234742D-03 -0.982075D-04  0.100081D+00
     12 -0.569377D-03  0.165821D-03 -0.689597D-04  0.774340D-04 -0.911651D-02
     13  0.112602D-03 -0.193163D+00 -0.120145D+00 -0.150562D-01 -0.958719D-04
     14  0.205565D-04 -0.124132D+00 -0.784022D-01 -0.523447D-02 -0.491862D-03
     15  0.178382D-03  0.886558D-02  0.994582D-02 -0.236202D-01  0.392661D-04
     16  0.614891D-02  0.151102D-03 -0.336026D-03 -0.123182D-03 -0.454221D-01
     17 -0.427719D-01 -0.251822D-03  0.165807D-03  0.147066D-03 -0.100156D+00
     18 -0.267377D+00 -0.373104D-04  0.188131D-03 -0.153136D-03  0.835479D-02
               11            12            13            14            15 
     11  0.225054D+00
     12 -0.147066D-01  0.291808D-01
     13 -0.256088D-03  0.192640D-03  0.213200D+00
     14 -0.579266D-04 -0.274621D-03  0.129710D+00  0.907944D-01
     15 -0.198309D-03 -0.559703D-03  0.301330D-01 -0.324616D-01  0.288790D+00
     16 -0.976740D-01  0.198984D-01  0.196006D-03  0.351539D-03  0.839099D-04
     17 -0.219310D+00  0.392576D-01  0.303598D-03 -0.176090D-02 -0.226686D-03
     18  0.132108D-01 -0.281430D-01 -0.131400D-03  0.110377D-03  0.301672D-03
               16            17            18 
     16  0.496780D-01
     17  0.106463D+00  0.244210D+00
     18 -0.259573D-01  0.367526D-02  0.295202D+00
 FormGI is forming the generalized inverse of G from B-inverse, IUseBI=4.
 Force constants in internal coordinates: 
                1             2             3             4             5 
      1  0.274903D+00
      2 -0.204135D-03  0.274948D+00
      3  0.897182D-04  0.117555D-03  0.156653D-02
      4 -0.122842D-02 -0.124028D-03  0.690614D-03  0.274737D+00
      5 -0.153350D-03 -0.120483D-02  0.134965D-02  0.501284D-03  0.272247D+00
      6  0.150107D-03  0.172680D-03  0.301625D-02  0.215808D-02  0.404049D-02
      7 -0.151626D-04  0.153883D-03  0.763633D-03  0.145632D-02  0.592062D-03
      8  0.987334D-02 -0.422159D-04 -0.244559D-05  0.967718D-02 -0.387706D-04
      9 -0.562479D-04  0.982002D-02  0.348947D-03  0.476154D-04  0.942574D-02
     10  0.602416D-04  0.918332D-04 -0.121379D-04 -0.388683D-04 -0.116382D-03
     11  0.216974D-03  0.989115D-04 -0.596103D-04  0.355587D-04  0.215541D-03
     12 -0.214135D-05  0.697151D-04 -0.302061D-04  0.636254D-04  0.287132D-04
                6             7             8             9            10 
      6  0.103596D-01
      7  0.551993D-02  0.274852D-02
      8  0.340983D-03  0.410475D-03  0.172835D+00
      9  0.158847D-02  0.529923D-03 -0.155748D-03  0.171028D+00
     10 -0.577615D-04 -0.145516D-03  0.625927D-03  0.125122D-02  0.127730D-02
     11  0.316915D-03  0.247937D-03 -0.813148D-03  0.103352D-02  0.106420D-02
     12  0.354014D-03  0.140307D-03  0.579498D-03 -0.572388D-03  0.355911D-03
               11            12 
     11  0.255647D-02
     12  0.495404D-03  0.709368D-03
 Leave Link  716 at Fri Jan  3 11:23:07 2025, MaxMem=   104857600 cpu:               0.0 elap:               0.0
 (Enter /opt/g16/l103.exe)

 GradGradGradGradGradGradGradGradGradGradGradGradGradGradGradGradGradGrad
 Berny optimization.
 Using GEDIIS/GDIIS optimizer.
 Red2BG is reusing G-inverse.
 Internal  Forces:  Max     0.000693471 RMS     0.000214075
 Search for a local minimum.
 Step number   3 out of a maximum of   22
 All quantities printed in internal units (Hartrees-Bohrs-Radians)
 RMS Force = .21408D-03 SwitMx=.10000D-02 MixMth= 2
 Mixed Optimization -- En-DIIS/RFO-DIIS
 Second derivative matrix not updated -- analytic derivatives used.
 DE= -4.28D-05 DEPred=-3.15D-04 R= 1.36D-01
 Trust test= 1.36D-01 RLast= 4.77D-01 DXMaxT set to 3.00D-01
 The second derivative matrix:
                          R1        R2        R3        R4        R5
           R1           0.27490
           R2          -0.00020   0.27495
           R3           0.00009   0.00012   0.00157
           R4          -0.00123  -0.00012   0.00069   0.27474
           R5          -0.00015  -0.00120   0.00135   0.00050   0.27225
           A1           0.00015   0.00017   0.00302   0.00216   0.00404
           A2          -0.00002   0.00015   0.00076   0.00146   0.00059
           A3           0.00987  -0.00004  -0.00000   0.00968  -0.00004
           A4          -0.00006   0.00982   0.00035   0.00005   0.00943
           D1           0.00006   0.00009  -0.00001  -0.00004  -0.00012
           D2           0.00022   0.00010  -0.00006   0.00004   0.00022
           D3          -0.00000   0.00007  -0.00003   0.00006   0.00003
                          A1        A2        A3        A4        D1
           A1           0.01036
           A2           0.00552   0.00275
           A3           0.00034   0.00041   0.17283
           A4           0.00159   0.00053  -0.00016   0.17103
           D1          -0.00006  -0.00015   0.00063   0.00125   0.00128
           D2           0.00032   0.00025  -0.00081   0.00103   0.00106
           D3           0.00035   0.00014   0.00058  -0.00057   0.00036
                          D2        D3
           D2           0.00256
           D3           0.00050   0.00071
 ITU=  0  0  0
 Use linear search instead of GDIIS.
     Eigenvalues ---   -0.00054   0.00050   0.00069   0.00122   0.00329
     Eigenvalues ---    0.01391   0.16925   0.17099   0.27305   0.27537
     Eigenvalues ---    0.27603   0.27615
 Eigenvalue     1 is  -5.36D-04 should be greater than     0.000000 Eigenvector:
                          A2        A1        R3        D3        D1
   1                    0.73660  -0.49944   0.44735   0.06817   0.04904
                          D2        R5        A4        A3        R4
   1                   -0.02805   0.00358   0.00130  -0.00124  -0.00107
 RFO step:  Lambda=-5.35605459D-04 EMin=-5.35602479D-04
 I=     1 Eig=   -5.36D-04 Dot1=  5.79D-07
 I=     1 Stepn=  6.00D-01 RXN=   6.00D-01 EDone=F
 Mixed    1 eigenvectors in step.  Raw Step.Grad=  5.79D-07.
 RFO eigenvector is Hessian eigenvector with negative curvature.
 Taking step of  6.00D-01 in eigenvector direction(s).  Step.Grad= -2.69D-04.
 Quintic linear search produced a step of  0.42927.
 Maximum step size (   0.300) exceeded in Quadratic search.
    -- Step size not scaled.
 Iteration  1 RMS(Cart)=  0.18091004 RMS(Int)=  0.14215864
 Iteration  2 RMS(Cart)=  0.18497933 RMS(Int)=  0.06484541
 Iteration  3 RMS(Cart)=  0.10227784 RMS(Int)=  0.00881779
 Iteration  4 RMS(Cart)=  0.00991363 RMS(Int)=  0.00003964
 Iteration  5 RMS(Cart)=  0.00002756 RMS(Int)=  0.00000000
 Iteration  6 RMS(Cart)=  0.00000000 RMS(Int)=  0.00000000
 ITry= 1 IFail=0 DXMaxC= 8.75D-01 DCOld= 1.00D+10 DXMaxT= 3.00D-01 DXLimC= 3.00D+00 Rises=F
 Variable       Old X    -DE/DX   Delta X   Delta X   Delta X     New X
                                 (Linear)    (Quad)   (Total)
    R1        2.53095  -0.00001   0.00015   0.00013   0.00028   2.53123
    R2        2.53065   0.00002   0.00002  -0.00021  -0.00019   2.53046
    R3        5.27009  -0.00017   0.09945   0.26841   0.36786   5.63794
    R4        2.53162   0.00001  -0.00038  -0.00064  -0.00102   2.53060
    R5        2.53472  -0.00019   0.00095   0.00215   0.00309   2.53781
    A1        1.49371  -0.00069  -0.10398  -0.29966  -0.40365   1.09006
    A2        2.06475  -0.00001   0.14115   0.44196   0.58311   2.64786
    A3        1.61156  -0.00004  -0.00042  -0.00075  -0.00116   1.61040
    A4        1.61371  -0.00002   0.00050   0.00078   0.00128   1.61499
    D1        3.03965   0.00002   0.01305   0.02942   0.04248   3.08212
    D2        1.66396  -0.00003  -0.02803  -0.01683  -0.04487   1.61909
    D3        1.77002  -0.00002   0.01750   0.04090   0.05840   1.82842
         Item               Value     Threshold  Converged?
 Maximum Force            0.000693     0.000450     NO 
 RMS     Force            0.000214     0.000300     YES
 Maximum Displacement     0.874534     0.001800     NO 
 RMS     Displacement     0.441285     0.001200     NO 
 Predicted change in Energy=-3.810873D-04
 GradGradGradGradGradGradGradGradGradGradGradGradGradGradGradGradGradGrad

 Leave Link  103 at Fri Jan  3 11:23:07 2025, MaxMem=   104857600 cpu:               0.0 elap:               0.0
 (Enter /opt/g16/l202.exe)
                          Input orientation:                          
 ---------------------------------------------------------------------
 Center     Atomic      Atomic             Coordinates (Angstroms)
 Number     Number       Type             X           Y           Z
 ---------------------------------------------------------------------
      1          1           0       -0.003019    1.856517   -1.330155
      2          1           0        0.330879   -2.288982   -1.380565
      3          1           0       -1.119272    1.742541    0.241623
      4          1           0        0.288805   -0.870271   -0.061093
      5         16           0        0.196002    1.773192   -0.008176
      6         16           0        0.306606   -2.212996   -0.043882
 ---------------------------------------------------------------------
                    Distance matrix (angstroms):
                    1          2          3          4          5
     1  H    0.000000
     2  H    4.159230   0.000000
     3  H    1.931190   4.581224   0.000000
     4  H    3.021763   1.937916   2.983472   0.000000
     5  S    1.339470   4.289860   1.339135   2.645621   0.000000
     6  S    4.279171   1.339061   4.214370   1.342953   3.987882
                    6
     6  S    0.000000
 Stoichiometry    H4S2
 Framework group  C1[X(H4S2)]
 Deg. of freedom    12
 Full point group                 C1      NOp   1
 RotChk:  IX=0 Diff= 9.69D-02
 Largest Abelian subgroup         C1      NOp   1
 Largest concise Abelian subgroup C1      NOp   1
                         Standard orientation:                         
 ---------------------------------------------------------------------
 Center     Atomic      Atomic             Coordinates (Angstroms)
 Number     Number       Type             X           Y           Z
 ---------------------------------------------------------------------
      1          1           0        2.030608    1.246984    0.238672
      2          1           0       -2.126663    1.253211    0.111177
      3          1           0        1.993863   -0.431109    1.193736
      4          1           0       -0.689606   -0.037012   -0.049157
      5         16           0        1.955680   -0.049545   -0.089320
      6         16           0       -2.031193   -0.077460   -0.004082
 ---------------------------------------------------------------------
 Rotational constants (GHZ):          96.2387422           1.8780034           1.8652305
 Leave Link  202 at Fri Jan  3 11:23:07 2025, MaxMem=   104857600 cpu:               0.0 elap:               0.0
 (Enter /opt/g16/l301.exe)
 Standard basis: STO-3G (5D, 7F)
 Ernie: Thresh=  0.10000D-02 Tol=  0.10000D-05 Strict=F.
 There are    22 symmetry adapted cartesian basis functions of A   symmetry.
 There are    22 symmetry adapted basis functions of A   symmetry.
    22 basis functions,    66 primitive gaussians,    22 cartesian basis functions
    18 alpha electrons       18 beta electrons
       nuclear repulsion energy        69.5454815878 Hartrees.
 IExCor=    0 DFT=F Ex=HF Corr=None ExCW=0 ScaHFX=  1.000000
 ScaDFX=  1.000000  1.000000  1.000000  1.000000 ScalE2=  1.000000  1.000000
 IRadAn=      5 IRanWt=     -1 IRanGd=            0 ICorTp=0 IEmpDi=  4
 NAtoms=    6 NActive=    6 NUniq=    6 SFac= 1.00D+00 NAtFMM=   60 NAOKFM=F Big=F
 Integral buffers will be    131072 words long.
 Raffenetti 1 integral format.
 Two-electron integral symmetry is turned on.
 Leave Link  301 at Fri Jan  3 11:23:07 2025, MaxMem=   104857600 cpu:               0.0 elap:               0.0
 (Enter /opt/g16/l402.exe)
 External calculation of energy, first and second derivatives.
 Running external command "python3 -u ../pes/h4s2_pes.py R"
         input file       "/home/jhli/scratch/g16/Gau-114563.EIn"
         output file      "/home/jhli/scratch/g16/Gau-114563.EOu"
         message file     "/home/jhli/scratch/g16/Gau-114563.EMs"
         fchk file        "/home/jhli/scratch/g16/Gau-114563.EFC"
         mat. el file     "/home/jhli/scratch/g16/Gau-114563.EUF"
 initialization done
 Recovered energy= -797.919826760     dipole=      0.000000000000      0.000000000000      0.000000000000
 Energy=    -797.919827     NIter=   0.
 Dipole moment=       0.000000       0.000000       0.000000
 Leave Link  402 at Fri Jan  3 11:23:07 2025, MaxMem=   104857600 cpu:               0.0 elap:               0.2
 (Enter /opt/g16/l716.exe)
 Dipole        = 0.00000000D+00 0.00000000D+00 0.00000000D+00
 ***** Axes restored to original set *****
 -------------------------------------------------------------------
 Center     Atomic                   Forces (Hartrees/Bohr)
 Number     Number              X              Y              Z
 -------------------------------------------------------------------
      1        1           0.000071690    0.000061331   -0.000042345
      2        1          -0.000026505   -0.000019922   -0.000049060
      3        1          -0.000313223    0.000017668    0.000086462
      4        1           0.000321448   -0.000779579    0.000015887
      5       16           0.000084333    0.001358967   -0.000043192
      6       16          -0.000135882   -0.000637921    0.000034241
 -------------------------------------------------------------------
 Cartesian Forces:  Max     0.001358967 RMS     0.000415917
 Force constants in Cartesian coordinates: 
                1             2             3             4             5 
      1  0.313635D-01
      2 -0.194863D-02  0.176340D-02
      3  0.325168D-01 -0.171904D-01  0.269469D+00
      4  0.927667D-04  0.198238D-04  0.189912D-04  0.734080D-04
      5  0.102408D-03 -0.240161D-03 -0.264474D-04 -0.712774D-03  0.275461D-01
      6 -0.667205D-05 -0.737537D-04 -0.169065D-03 -0.501236D-02  0.179631D-01
      7  0.992651D-03  0.127206D-03 -0.210940D-02  0.368169D-04 -0.512030D-04
      8 -0.181806D-02 -0.796039D-04  0.473826D-03  0.317342D-05  0.103424D-03
      9  0.265092D-01  0.662753D-03 -0.763491D-02  0.463516D-04  0.687908D-04
     10 -0.945062D-04  0.471209D-04 -0.842931D-04 -0.900358D-04  0.529109D-03
     11 -0.108972D-03  0.473347D-04  0.354190D-03  0.357586D-04 -0.355512D-02
     12 -0.217384D-03  0.960020D-03 -0.602216D-04  0.382574D-03 -0.272657D-01
     13 -0.322805D-01  0.179386D-02 -0.303731D-01 -0.102455D-03 -0.811315D-04
     14  0.376554D-02 -0.168532D-02  0.165904D-01 -0.582093D-04 -0.124313D-03
     15 -0.589309D-01  0.160623D-01 -0.261778D+00 -0.578448D-04  0.350125D-03
     16 -0.739427D-04 -0.390451D-04  0.290003D-04 -0.116642D-04  0.213196D-03
     17  0.721010D-05  0.193275D-03 -0.202089D-03  0.712095D-03 -0.237296D-01
     18  0.127862D-03 -0.420838D-03  0.173495D-03  0.462180D-02  0.891125D-02
                6             7             8             9            10 
      6  0.273475D+00
      7 -0.105335D-03  0.265057D+00
      8  0.149126D-04  0.582049D-02  0.914242D-03
      9  0.169166D-04 -0.490146D-01 -0.297617D-02  0.370275D-01
     10  0.622064D-04 -0.352985D-03  0.112630D-02 -0.518607D-04  0.238622D-02
     11  0.148107D-02  0.211280D-03  0.157586D-03 -0.186373D-03 -0.356363D-02
     12 -0.252504D-02  0.492772D-04 -0.290289D-03 -0.683266D-04 -0.583989D-03
     13  0.997293D-04 -0.265840D+00 -0.462675D-02  0.225411D-01 -0.604385D-03
     14 -0.572387D-04 -0.611594D-02 -0.880211D-03  0.232386D-02 -0.990571D-03
     15  0.214300D-03  0.511087D-01  0.262692D-02 -0.293561D-01  0.230092D-03
     16  0.496243D-02  0.104788D-03 -0.504838D-03 -0.313197D-04 -0.124561D-02
     17 -0.193270D-01  0.771568D-05 -0.216559D-03  0.106605D-03  0.285144D-02
     18 -0.271012D+00  0.704332D-04  0.150811D-03  0.146255D-04  0.427515D-03
               11            12            13            14            15 
     11  0.266863D+00
     12  0.258901D-03  0.293155D-01
     13 -0.876423D-04  0.253839D-03  0.298212D+00
     14 -0.148202D-02 -0.525445D-03  0.278461D-02  0.808174D-02
     15 -0.209871D-03 -0.873895D-03  0.770072D-02 -0.184822D-01  0.291220D+00
     16  0.351303D-02  0.115709D-03  0.616497D-03  0.613809D-03 -0.476837D-04
     17 -0.262032D+00  0.268638D-01  0.217991D-03 -0.390582D-02 -0.346273D-03
     18 -0.169646D-02 -0.257877D-01 -0.220284D-03  0.150459D-03  0.573448D-03
               16            17            18 
     16  0.612300D-03
     17 -0.379575D-02  0.289691D+00
     18 -0.502733D-02 -0.709750D-02  0.296038D+00
 FormGI is forming the generalized inverse of G from B-inverse, IUseBI=4.
 Force constants in internal coordinates: 
                1             2             3             4             5 
      1  0.274868D+00
      2 -0.162300D-03  0.274811D+00
      3  0.122153D-03  0.994191D-04  0.448068D-02
      4 -0.125293D-02 -0.791184D-04 -0.421852D-04  0.275245D+00
      5 -0.206976D-03 -0.119488D-02  0.376404D-02 -0.183451D-03  0.269774D+00
      6  0.292457D-03  0.396195D-03  0.117198D-01 -0.249233D-03  0.103662D-01
      7 -0.107330D-03  0.108350D-03 -0.869263D-03  0.141566D-02  0.446581D-04
      8  0.100665D-01 -0.613495D-04 -0.255131D-04  0.992752D-02 -0.351916D-03
      9  0.284606D-04  0.990797D-02  0.428077D-03  0.134751D-03  0.898543D-02
     10 -0.807089D-05  0.132913D-03 -0.181134D-04 -0.714384D-04 -0.485170D-04
     11  0.418019D-03  0.238502D-03 -0.107701D-03  0.141327D-03  0.143107D-03
     12 -0.801639D-04  0.672633D-04 -0.115484D-03 -0.361024D-04 -0.677991D-04
                6             7             8             9            10 
      6  0.401126D-01
      7  0.297324D-02  0.539339D-02
      8  0.710383D-03  0.109111D-03  0.173543D+00
      9  0.234677D-02  0.793981D-03 -0.623642D-03  0.168558D+00
     10 -0.333739D-03  0.186904D-03  0.393523D-03  0.164376D-02  0.717203D-03
     11  0.470453D-03  0.255942D-03 -0.101070D-02  0.154025D-02  0.819888D-03
     12 -0.337661D-03  0.288665D-03  0.513135D-03  0.179184D-03 -0.270700D-03
               11            12 
     11  0.432382D-02
     12  0.880679D-04 -0.111508D-03
 Leave Link  716 at Fri Jan  3 11:23:07 2025, MaxMem=   104857600 cpu:               0.0 elap:               0.0
 (Enter /opt/g16/l103.exe)

 GradGradGradGradGradGradGradGradGradGradGradGradGradGradGradGradGradGrad
 Berny optimization.
 Using GEDIIS/GDIIS optimizer.
 Red2BG is reusing G-inverse.
 Internal  Forces:  Max     0.003576449 RMS     0.001128871
 Search for a local minimum.
 Step number   4 out of a maximum of   22
 All quantities printed in internal units (Hartrees-Bohrs-Radians)
 RMS Force = .11289D-02 SwitMx=.10000D-02 MixMth= 1
 Mixed Optimization -- RFO/linear search
 Second derivative matrix not updated -- analytic derivatives used.
 The second derivative matrix:
                          R1        R2        R3        R4        R5
           R1           0.27487
           R2          -0.00016   0.27481
           R3           0.00012   0.00010   0.00448
           R4          -0.00125  -0.00008  -0.00004   0.27525
           R5          -0.00021  -0.00119   0.00376  -0.00018   0.26977
           A1           0.00029   0.00040   0.01172  -0.00025   0.01037
           A2          -0.00011   0.00011  -0.00087   0.00142   0.00004
           A3           0.01007  -0.00006  -0.00003   0.00993  -0.00035
           A4           0.00003   0.00991   0.00043   0.00013   0.00899
           D1          -0.00001   0.00013  -0.00002  -0.00007  -0.00005
           D2           0.00042   0.00024  -0.00011   0.00014   0.00014
           D3          -0.00008   0.00007  -0.00012  -0.00004  -0.00007
                          A1        A2        A3        A4        D1
           A1           0.04011
           A2           0.00297   0.00539
           A3           0.00071   0.00011   0.17354
           A4           0.00235   0.00079  -0.00062   0.16856
           D1          -0.00033   0.00019   0.00039   0.00164   0.00072
           D2           0.00047   0.00026  -0.00101   0.00154   0.00082
           D3          -0.00034   0.00029   0.00051   0.00018  -0.00027
                          D2        D3
           D2           0.00432
           D3           0.00009  -0.00011
 ITU=  0  0  0  0
 Use linear search instead of GDIIS.
     Eigenvalues ---   -0.00028   0.00036   0.00069   0.00440   0.00588
     Eigenvalues ---    0.04324   0.16682   0.17167   0.27108   0.27558
     Eigenvalues ---    0.27590   0.27637
 Eigenvalue     1 is  -2.77D-04 should be greater than     0.000000 Eigenvector:
                          D3        D1        R3        A2        D2
   1                    0.89746   0.36802  -0.17897  -0.11897  -0.08752
                          A1        A3        A4        R4        R1
   1                    0.07250  -0.00434  -0.00375   0.00107   0.00053
 RFO step:  Lambda=-4.01110623D-04 EMin=-2.76966069D-04
 Quintic linear search produced a step of -0.52746.
 Maximum step size (   0.300) exceeded in Quadratic search.
    -- Step size scaled by   0.399
 Iteration  1 RMS(Cart)=  0.25710176 RMS(Int)=  0.03283707
 Iteration  2 RMS(Cart)=  0.04912253 RMS(Int)=  0.00110883
 Iteration  3 RMS(Cart)=  0.00142266 RMS(Int)=  0.00000094
 Iteration  4 RMS(Cart)=  0.00000115 RMS(Int)=  0.00000000
 Iteration  5 RMS(Cart)=  0.00000000 RMS(Int)=  0.00000000
 ITry= 1 IFail=0 DXMaxC= 4.83D-01 DCOld= 1.00D+10 DXMaxT= 3.00D-01 DXLimC= 3.00D+00 Rises=F
 Variable       Old X    -DE/DX   Delta X   Delta X   Delta X     New X
                                 (Linear)    (Quad)   (Total)
    R1        2.53123   0.00004  -0.00015  -0.00014  -0.00029   2.53094
    R2        2.53046   0.00005   0.00010   0.00007   0.00016   2.53062
    R3        5.63794   0.00133  -0.19403   0.26804   0.07401   5.71195
    R4        2.53060   0.00019   0.00054  -0.00057  -0.00003   2.53057
    R5        2.53781   0.00066  -0.00163  -0.00056  -0.00219   2.53563
    A1        1.09006   0.00358   0.21291  -0.07816   0.13475   1.22481
    A2        2.64786  -0.00043  -0.30757   0.10709  -0.20048   2.44738
    A3        1.61040   0.00017   0.00061   0.00152   0.00213   1.61253
    A4        1.61499   0.00005  -0.00068   0.00090   0.00022   1.61522
    D1        3.08212  -0.00003  -0.02240  -0.10254  -0.12495   2.95717
    D2        1.61909   0.00014   0.02367   0.03168   0.05535   1.67444
    D3        1.82842  -0.00009  -0.03080  -0.21405  -0.24485   1.58357
         Item               Value     Threshold  Converged?
 Maximum Force            0.003576     0.000450     NO 
 RMS     Force            0.001129     0.000300     NO 
 Maximum Displacement     0.482806     0.001800     NO 
 RMS     Displacement     0.283838     0.001200     NO 
 Predicted change in Energy=-4.700637D-05
 GradGradGradGradGradGradGradGradGradGradGradGradGradGradGradGradGradGrad

 Leave Link  103 at Fri Jan  3 11:23:07 2025, MaxMem=   104857600 cpu:               0.0 elap:               0.0
 (Enter /opt/g16/l202.exe)
                          Input orientation:                          
 ---------------------------------------------------------------------
 Center     Atomic      Atomic             Coordinates (Angstroms)
 Number     Number       Type             X           Y           Z
 ---------------------------------------------------------------------
      1          1           0        0.073945    2.112007   -1.279513
      2          1           0        0.102742   -2.398019   -1.318165
      3          1           0       -1.170855    1.580801    0.100688
      4          1           0        0.495518   -0.931830   -0.114283
      5         16           0        0.128098    1.900984    0.041964
      6         16           0        0.370552   -2.263943   -0.012938
 ---------------------------------------------------------------------
                    Distance matrix (angstroms):
                    1          2          3          4          5
     1  H    0.000000
     2  H    4.510284   0.000000
     3  H    1.933045   4.412052   0.000000
     4  H    3.286400   1.937348   3.022635   0.000000
     5  S    1.339316   4.509104   1.339121   2.860811   0.000000
     6  S    4.565208   1.339147   4.143779   1.341795   4.172339
                    6
     6  S    0.000000
 Stoichiometry    H4S2
 Framework group  C1[X(H4S2)]
 Deg. of freedom    12
 Full point group                 C1      NOp   1
 RotChk:  IX=0 Diff= 3.32D-01
 Largest Abelian subgroup         C1      NOp   1
 Largest concise Abelian subgroup C1      NOp   1
                         Standard orientation:                         
 ---------------------------------------------------------------------
 Center     Atomic      Atomic             Coordinates (Angstroms)
 Number     Number       Type             X           Y           Z
 ---------------------------------------------------------------------
      1          1           0        2.249434    1.237382   -0.192879
      2          1           0       -2.251234    1.250874    0.101175
      3          1           0        1.828137    0.031797    1.258237
      4          1           0       -0.799845    0.012410   -0.234968
      5         16           0        2.053906   -0.080590   -0.056922
      6         16           0       -2.118062   -0.077689   -0.001301
 ---------------------------------------------------------------------
 Rotational constants (GHZ):          97.0398133           1.7172124           1.7076241
 Leave Link  202 at Fri Jan  3 11:23:07 2025, MaxMem=   104857600 cpu:               0.0 elap:               0.0
 (Enter /opt/g16/l301.exe)
 Standard basis: STO-3G (5D, 7F)
 Ernie: Thresh=  0.10000D-02 Tol=  0.10000D-05 Strict=F.
 There are    22 symmetry adapted cartesian basis functions of A   symmetry.
 There are    22 symmetry adapted basis functions of A   symmetry.
    22 basis functions,    66 primitive gaussians,    22 cartesian basis functions
    18 alpha electrons       18 beta electrons
       nuclear repulsion energy        67.6009993064 Hartrees.
 IExCor=    0 DFT=F Ex=HF Corr=None ExCW=0 ScaHFX=  1.000000
 ScaDFX=  1.000000  1.000000  1.000000  1.000000 ScalE2=  1.000000  1.000000
 IRadAn=      5 IRanWt=     -1 IRanGd=            0 ICorTp=0 IEmpDi=  4
 NAtoms=    6 NActive=    6 NUniq=    6 SFac= 1.00D+00 NAtFMM=   60 NAOKFM=F Big=F
 Integral buffers will be    131072 words long.
 Raffenetti 1 integral format.
 Two-electron integral symmetry is turned on.
 Leave Link  301 at Fri Jan  3 11:23:07 2025, MaxMem=   104857600 cpu:               0.0 elap:               0.0
 (Enter /opt/g16/l402.exe)
 External calculation of energy, first and second derivatives.
 Running external command "python3 -u ../pes/h4s2_pes.py R"
         input file       "/home/jhli/scratch/g16/Gau-114563.EIn"
         output file      "/home/jhli/scratch/g16/Gau-114563.EOu"
         message file     "/home/jhli/scratch/g16/Gau-114563.EMs"
         fchk file        "/home/jhli/scratch/g16/Gau-114563.EFC"
         mat. el file     "/home/jhli/scratch/g16/Gau-114563.EUF"
 initialization done
 Recovered energy= -797.920101632     dipole=      0.000000000000      0.000000000000      0.000000000000
 Energy=    -797.920102     NIter=   0.
 Dipole moment=       0.000000       0.000000       0.000000
 Leave Link  402 at Fri Jan  3 11:23:08 2025, MaxMem=   104857600 cpu:               0.0 elap:               0.2
 (Enter /opt/g16/l716.exe)
 Dipole        = 0.00000000D+00 0.00000000D+00 0.00000000D+00
 ***** Axes restored to original set *****
 -------------------------------------------------------------------
 Center     Atomic                   Forces (Hartrees/Bohr)
 Number     Number              X              Y              Z
 -------------------------------------------------------------------
      1        1          -0.000035797    0.000034559   -0.000005466
      2        1           0.000007886    0.000042602    0.000006720
      3        1          -0.000266613    0.000001132    0.000001411
      4        1          -0.000000932    0.000038586    0.000049707
      5       16           0.000285812   -0.000086577   -0.000035590
      6       16           0.000011182   -0.000030431   -0.000013861
 -------------------------------------------------------------------
 Cartesian Forces:  Max     0.000285812 RMS     0.000097516
 Force constants in Cartesian coordinates: 
                1             2             3             4             5 
      1  0.258629D-01
      2  0.468487D-02  0.905946D-02
      3  0.717979D-02 -0.437117D-01  0.267709D+00
      4  0.547270D-04  0.324223D-04 -0.307406D-04  0.113757D-01
      5  0.925038D-04 -0.161746D-03 -0.532918D-04  0.854450D-02  0.295660D-01
      6 -0.731034D-05 -0.151874D-04 -0.140868D-03  0.535089D-01  0.273927D-01
      7 -0.152639D-02 -0.846588D-04 -0.148762D-02  0.153427D-04 -0.716095D-04
      8 -0.483090D-02 -0.128734D-02  0.266483D-03  0.107705D-05  0.000000D+00
      9  0.260557D-01  0.673934D-02 -0.381901D-02  0.706374D-04  0.174141D-04
     10 -0.509910D-04 -0.114223D-03 -0.432826D-04 -0.712134D-03 -0.564722D-02
     11 -0.995195D-04  0.308291D-04  0.291189D-03 -0.201640D-03 -0.473856D-02
     12 -0.268214D-03  0.648742D-03  0.000000D+00 -0.303226D-02 -0.263704D-01
     13 -0.243165D-01 -0.451978D-02 -0.565476D-02 -0.367581D-04  0.253482D-04
     14  0.193869D-03 -0.769270D-02  0.433463D-01 -0.831943D-04 -0.769825D-04
     15 -0.330931D-01  0.366626D-01 -0.263871D+00 -0.250916D-04  0.262799D-03
     16 -0.238584D-04  0.148979D-05  0.355912D-04 -0.106981D-01 -0.294299D-02
     17 -0.406894D-04  0.504211D-04 -0.139178D-03 -0.829326D-02 -0.245874D-01
     18  0.131640D-03 -0.323449D-03  0.121238D-03 -0.504915D-01 -0.124806D-02
                6             7             8             9            10 
      6  0.260630D+00
      7 -0.104848D-03  0.258764D+00
      8 -0.587011D-04  0.635764D-01  0.170338D-01
      9 -0.234634D-04 -0.131905D-01 -0.773690D-02  0.272478D-01
     10  0.592869D-04 -0.459043D-03  0.860967D-03 -0.759710D-05  0.531579D-02
     11  0.165337D-02  0.243510D-03  0.108417D-03 -0.122162D-03  0.260430D-01
     12 -0.780913D-03  0.957452D-04 -0.168788D-03 -0.144812D-04  0.346243D-02
     13  0.119043D-03 -0.256937D+00 -0.592013D-01 -0.128782D-01 -0.373935D-03
     14 -0.552922D-05 -0.635682D-01 -0.158800D-01  0.104084D-02 -0.615306D-03
     15  0.179314D-03  0.146435D-01  0.755825D-02 -0.233865D-01  0.134014D-03
     16 -0.535752D-01  0.142430D-03 -0.406638D-03 -0.512003D-04 -0.372094D-02
     17 -0.289657D-01 -0.952953D-04  0.246970D-04  0.613829D-04 -0.205276D-01
     18 -0.259864D+00  0.422371D-04  0.139565D-03 -0.395370D-05 -0.360461D-02
               11            12            13            14            15 
     11  0.266089D+00
     12 -0.154897D-01  0.285514D-01
     13 -0.192319D-03  0.256822D-03  0.281390D+00
     14 -0.378293D-03 -0.349235D-03  0.636014D-01  0.260748D-01
     15 -0.177800D-03 -0.706300D-03  0.183484D-01 -0.441206D-01  0.287465D+00
     16 -0.257926D-01 -0.514933D-03  0.274452D-03  0.471587D-03 -0.555055D-05
     17 -0.261112D+00  0.417304D-01  0.286283D-03 -0.204355D-02 -0.184855D-03
     18  0.138467D-01 -0.270498D-01 -0.188321D-03  0.880266D-04  0.319186D-03
               16            17            18 
     16  0.140284D-01
     17  0.286696D-01  0.287667D+00
     18  0.541111D-01 -0.125047D-01  0.286478D+00
 FormGI is forming the generalized inverse of G from B-inverse, IUseBI=4.
 Force constants in internal coordinates: 
                1             2             3             4             5 
      1  0.274995D+00
      2 -0.140802D-03  0.274893D+00
      3  0.988998D-04  0.100099D-03  0.197918D-02
      4 -0.123744D-02 -0.105781D-03  0.324812D-03  0.275479D+00
      5 -0.171428D-03 -0.121818D-02  0.194313D-02  0.140510D-03  0.271449D+00
      6  0.266085D-03  0.210437D-03  0.491821D-02  0.187021D-02  0.556594D-02
      7 -0.270942D-04  0.798087D-04  0.219894D-04  0.976526D-03  0.212317D-03
      8  0.981603D-02 -0.225788D-04  0.946285D-04  0.982892D-02 -0.606336D-04
      9 -0.326792D-04  0.988078D-02  0.514150D-03 -0.917030D-04  0.924327D-02
     10  0.862906D-04  0.117132D-03  0.507258D-04 -0.333297D-04 -0.107857D-03
     11  0.332229D-03  0.121103D-03 -0.639948D-04  0.231192D-03  0.301521D-03
     12  0.175098D-04  0.409657D-04 -0.539904D-04 -0.395958D-04 -0.574729D-04
                6             7             8             9            10 
      6  0.194984D-01
      7  0.393835D-02  0.320626D-02
      8  0.768467D-03  0.195176D-03  0.173538D+00
      9  0.165339D-02  0.211962D-04 -0.359813D-03  0.170371D+00
     10  0.459293D-04  0.363579D-03  0.244578D-03  0.119870D-02  0.931379D-03
     11  0.839983D-03  0.720696D-03 -0.871315D-03  0.115157D-02  0.879997D-03
     12 -0.165200D-03  0.351400D-03  0.293226D-03 -0.169584D-03  0.184767D-03
               11            12 
     11  0.348318D-02
     12  0.266057D-03  0.339579D-03
 Leave Link  716 at Fri Jan  3 11:23:08 2025, MaxMem=   104857600 cpu:               0.0 elap:               0.0
 (Enter /opt/g16/l103.exe)

 GradGradGradGradGradGradGradGradGradGradGradGradGradGradGradGradGradGrad
 Berny optimization.
 Using GEDIIS/GDIIS optimizer.
 Red2BG is reusing G-inverse.
 Internal  Forces:  Max     0.000272492 RMS     0.000117336
 Search for a local minimum.
 Step number   5 out of a maximum of   22
 All quantities printed in internal units (Hartrees-Bohrs-Radians)
 RMS Force = .11734D-03 SwitMx=.10000D-02 MixMth= 2
 Mixed Optimization -- En-DIIS/RFO-DIIS
 Second derivative matrix not updated -- analytic derivatives used.
 DE= -9.02D-05 DEPred=-4.70D-05 R= 1.92D+00
 TightC=F SS=  1.41D+00  RLast= 6.75D-01 DXNew= 5.0454D-01 2.0250D+00
 Trust test= 1.92D+00 RLast= 6.75D-01 DXMaxT set to 5.05D-01
 The second derivative matrix:
                          R1        R2        R3        R4        R5
           R1           0.27499
           R2          -0.00014   0.27489
           R3           0.00010   0.00010   0.00198
           R4          -0.00124  -0.00011   0.00032   0.27548
           R5          -0.00017  -0.00122   0.00194   0.00014   0.27145
           A1           0.00027   0.00021   0.00492   0.00187   0.00557
           A2          -0.00003   0.00008   0.00002   0.00098   0.00021
           A3           0.00982  -0.00002   0.00009   0.00983  -0.00006
           A4          -0.00003   0.00988   0.00051  -0.00009   0.00924
           D1           0.00009   0.00012   0.00005  -0.00003  -0.00011
           D2           0.00033   0.00012  -0.00006   0.00023   0.00030
           D3           0.00002   0.00004  -0.00005  -0.00004  -0.00006
                          A1        A2        A3        A4        D1
           A1           0.01950
           A2           0.00394   0.00321
           A3           0.00077   0.00020   0.17354
           A4           0.00165   0.00002  -0.00036   0.17037
[...]
      2          1           0       -0.103361   -2.425063   -1.224463
      3          1           0       -1.282806    1.763909   -0.006394
      4          1           0        0.469868   -0.964510   -0.089436
      5         16           0        0.051056    1.832167    0.093472
      6         16           0        0.672097   -2.290031   -0.141083
 ---------------------------------------------------------------------
                    Distance matrix (angstroms):
                    1          2          3          4          5
     1  H    0.000000
     2  H    4.518342   0.000000
     3  H    1.933839   4.519101   0.000000
     4  H    3.260757   1.936515   3.243923   0.000000
     5  S    1.339311   4.459238   1.339336   2.833772   0.000000
     6  S    4.528720   1.339135   4.502690   1.341853   4.175311
                    6
     6  S    0.000000
 Stoichiometry    H4S2
 Framework group  C1[X(H4S2)]
 Deg. of freedom    12
 Full point group                 C1      NOp   1
 RotChk:  IX=0 Diff= 7.61D-15
 Largest Abelian subgroup         C1      NOp   1
 Largest concise Abelian subgroup C1      NOp   1
                         Standard orientation:                         
 ---------------------------------------------------------------------
 Center     Atomic      Atomic             Coordinates (Angstroms)
 Number     Number       Type             X           Y           Z
 ---------------------------------------------------------------------
      1          1           0        2.203170    0.867368   -0.915701
      2          1           0       -2.200781    1.263180    0.013798
      3          1           0        2.176684    0.754948    1.014686
      4          1           0       -0.789302   -0.062358   -0.013893
      5         16           0        2.044176   -0.102385   -0.005726
      6         16           0       -2.131036   -0.074061   -0.000454
 ---------------------------------------------------------------------
 Rotational constants (GHZ):          96.7889960           1.7083404           1.6999869
 Leave Link  202 at Fri Jan  3 11:23:09 2025, MaxMem=   104857600 cpu:               0.0 elap:               0.0
 (Enter /opt/g16/l601.exe)
 Leave Link  601 at Fri Jan  3 11:23:09 2025, MaxMem=   104857600 cpu:               0.0 elap:               0.0
 (Enter /opt/g16/l716.exe)
 Rotating derivatives to standard orientation.
 Dipole        = 0.00000000D+00 0.00000000D+00 0.00000000D+00
 Full mass-weighted force constant matrix:
 Low frequencies ---  -33.3661   -0.2145   -0.1532   -0.0893    3.0256    3.3453
 Low frequencies ---   37.0025   61.9646   75.8687
 Diagonal vibrational polarizability:
        0.0000000       0.0000000       0.0000000
 Harmonic frequencies (cm**-1), IR intensities (KM/Mole), Raman scattering
 activities (A**4/AMU), depolarization ratios for plane and unpolarized
 incident light, reduced masses (AMU), force constants (mDyne/A),
 and normal coordinates:
                      1                      2                      3
                      A                      A                      A
 Frequencies --     30.1433                61.9632                75.7082
 Red. masses --      1.0527                 4.0683                 1.0565
 Frc consts  --      0.0006                 0.0092                 0.0036
 IR Inten    --      0.0000                 0.0000                 0.0000
  Atom  AN      X      Y      Z        X      Y      Z        X      Y      Z
     1   1    -0.25  -0.24  -0.28    -0.52   0.03  -0.01     0.71  -0.19  -0.07
     2   1     0.00  -0.01   0.72     0.46   0.02   0.05    -0.26  -0.02   0.32
     3   1     0.30   0.26  -0.24    -0.56   0.07  -0.01    -0.24   0.12  -0.07
     4   1     0.00   0.00   0.24     0.23  -0.23  -0.03     0.02   0.28  -0.36
     5  16    -0.00  -0.00   0.02    -0.22  -0.00   0.00    -0.03   0.00   0.00
     6  16    -0.00   0.00  -0.03     0.23   0.01  -0.00     0.02  -0.01   0.00
                      4                      5                      6
                      A                      A                      A
 Frequencies --     77.2295               149.1996               257.9690
 Red. masses --      1.1824                 1.0644                 1.0201
 Frc consts  --      0.0042                 0.0140                 0.0400
 IR Inten    --      0.0000                 0.0000                 0.0000
  Atom  AN      X      Y      Z        X      Y      Z        X      Y      Z
     1   1     0.08   0.03   0.05     0.50  -0.06   0.00     0.34  -0.02   0.03
     2   1    -0.40  -0.03  -0.23     0.53   0.03  -0.01     0.00   0.00  -0.02
     3   1     0.70  -0.18   0.05     0.46  -0.06   0.01    -0.36   0.02   0.02
     4   1     0.04   0.42   0.26    -0.01  -0.51  -0.01     0.01  -0.01   0.87
     5  16    -0.06   0.00  -0.00    -0.04   0.02  -0.00     0.00   0.00  -0.02
     6  16     0.05  -0.01  -0.00    -0.01  -0.00   0.00    -0.00   0.00  -0.01
                      7                      8                      9
                      A                      A                      A
 Frequencies --   1208.5185              1215.6368              2695.5006
 Red. masses --      1.0398                 1.0389                 1.0366
 Frc consts  --      0.8947                 0.9045                 4.4376
 IR Inten    --      0.0000                 0.0000                 0.0000
  Atom  AN      X      Y      Z        X      Y      Z        X      Y      Z
     1   1     0.07   0.44   0.48    -0.03  -0.17  -0.19     0.01   0.04  -0.04
     2   1     0.25   0.01  -0.00     0.65   0.03  -0.01    -0.03   0.27   0.00
     3   1     0.08   0.49  -0.43    -0.04  -0.19   0.17     0.01   0.04   0.05
     4   1    -0.00   0.26   0.00    -0.01   0.67   0.01     0.96  -0.01  -0.01
     5  16    -0.00  -0.03  -0.00     0.00   0.01   0.00    -0.00  -0.00  -0.00
     6  16    -0.01  -0.01  -0.00    -0.02  -0.02  -0.00    -0.03  -0.01   0.00
                     10                     11                     12
                      A                      A                      A
 Frequencies --   2717.5883              2728.8862              2734.1556
 Red. masses --      1.0355                 1.0388                 1.0398
 Frc consts  --      4.5060                 4.5578                 4.5799
 IR Inten    --      0.0000                 0.0000                 0.0000
  Atom  AN      X      Y      Z        X      Y      Z        X      Y      Z
     1   1     0.08   0.49  -0.49    -0.00  -0.00   0.00    -0.08  -0.51   0.48
     2   1     0.00  -0.02  -0.00    -0.06   0.96   0.01    -0.00   0.00   0.00
     3   1     0.07   0.44   0.55    -0.00  -0.00  -0.00     0.07   0.45   0.54
     4   1    -0.08  -0.00   0.00    -0.27  -0.01   0.00     0.00   0.00  -0.00
     5  16    -0.00  -0.03  -0.00     0.00   0.00   0.00     0.00   0.00  -0.03
     6  16     0.00   0.00  -0.00     0.01  -0.03  -0.00    -0.00  -0.00   0.00

 -------------------
 - Thermochemistry -
 -------------------
 Temperature   298.150 Kelvin.  Pressure   1.00000 Atm.
 Atom     1 has atomic number  1 and mass   1.00783
 Atom     2 has atomic number  1 and mass   1.00783
 Atom     3 has atomic number  1 and mass   1.00783
 Atom     4 has atomic number  1 and mass   1.00783
 Atom     5 has atomic number 16 and mass  31.97207
 Atom     6 has atomic number 16 and mass  31.97207
 Molecular mass:    67.97544 amu.
 Principal axes and moments of inertia in atomic units:
                           1         2         3
     Eigenvalues --    18.646141056.429521061.62065
           X            1.00000   0.00300   0.00058
           Y           -0.00300   0.99999  -0.00363
           Z           -0.00059   0.00363   0.99999
 This molecule is an asymmetric top.
 Rotational symmetry number  1.
 Rotational temperatures (Kelvin)      4.64514     0.08199     0.08159
 Rotational constants (GHZ):          96.78900     1.70834     1.69999
 Zero-point vibrational energy      83454.5 (Joules/Mol)
                                   19.94610 (Kcal/Mol)
 Warning -- explicit consideration of   6 degrees of freedom as
           vibrations may cause significant error
 Vibrational temperatures:     43.37    89.15   108.93   111.12   214.66
          (Kelvin)            371.16  1738.79  1749.03  3878.22  3910.00
                             3926.26  3933.84
 
 Zero-point correction=                           0.031786 (Hartree/Particle)
 Thermal correction to Energy=                    0.039019
 Thermal correction to Enthalpy=                  0.039964
 Thermal correction to Gibbs Free Energy=        -0.000769
 Sum of electronic and zero-point Energies=           -797.888345
 Sum of electronic and thermal Energies=              -797.881112
 Sum of electronic and thermal Enthalpies=            -797.880168
 Sum of electronic and thermal Free Energies=         -797.920900
 
                     E (Thermal)             CV                S
                      KCal/Mol        Cal/Mol-Kelvin    Cal/Mol-Kelvin
 Total                   24.485             17.897             85.728
 Electronic               0.000              0.000              0.000
 Translational            0.889              2.981             38.567
 Rotational               0.889              2.981             24.551
 Vibrational             22.708             11.936             22.610
 Vibration     1          0.594              1.984              5.820
 Vibration     2          0.597              1.972              4.394
 Vibration     3          0.599              1.965              3.999
 Vibration     4          0.599              1.964              3.960
 Vibration     5          0.618              1.904              2.682
 Vibration     6          0.667              1.749              1.675
                       Q            Log10(Q)             Ln(Q)
 Total Bot       0.225683D+01          0.353499          0.813962
 Total V=0       0.942088D+15         14.974092         34.479120
 Vib (Bot)       0.197912D-11        -11.703528        -26.948368
 Vib (Bot)    1  0.686860D+01          0.836868          1.926960
 Vib (Bot)    2  0.333189D+01          0.522691          1.203541
 Vib (Bot)    3  0.272199D+01          0.434886          1.001362
 Vib (Bot)    4  0.266777D+01          0.426148          0.981242
 Vib (Bot)    5  0.135936D+01          0.133333          0.307011
 Vib (Bot)    6  0.753675D+00         -0.122816         -0.282794
 Vib (V=0)       0.826161D+03          2.917065          6.716790
 Vib (V=0)    1  0.738677D+01          0.868455          1.999691
 Vib (V=0)    2  0.386920D+01          0.587621          1.353048
 Vib (V=0)    3  0.326753D+01          0.514219          1.184033
 Vib (V=0)    4  0.321422D+01          0.507075          1.167584
 Vib (V=0)    5  0.194840D+01          0.289677          0.667006
 Vib (V=0)    6  0.140445D+01          0.147506          0.339645
 Electronic      0.100000D+01          0.000000          0.000000
 Translational   0.220283D+08          7.342982         16.907841
 Rotational      0.517660D+05          4.714045         10.854490
 ***** Axes restored to original set *****
 -------------------------------------------------------------------
 Center     Atomic                   Forces (Hartrees/Bohr)
 Number     Number              X              Y              Z
 -------------------------------------------------------------------
      1        1          -0.000001686   -0.000000599   -0.000001166
      2        1          -0.000001177   -0.000000799    0.000001820
      3        1           0.000000693    0.000000302    0.000002252
      4        1           0.000002247    0.000000061    0.000001150
      5       16           0.000001565    0.000000955    0.000001324
      6       16           0.000000947    0.000000552   -0.000001682
 -------------------------------------------------------------------
 Cartesian Forces:  Max     0.000002252 RMS     0.000001314
 Force constants in Cartesian coordinates: 
                1             2             3             4             5 
      1  0.305988D-01
      2  0.720675D-02  0.104316D-01
      3 -0.290289D-01 -0.503801D-01  0.261545D+00
      4 -0.250473D-04  0.331589D-05 -0.748255D-04  0.922729D-01
      5  0.753066D-04 -0.128192D-03 -0.344192D-04  0.136334D-01  0.293350D-01
      6  0.362436D-05 -0.786928D-05 -0.535404D-04  0.128208D+00  0.256471D-01
      7 -0.543867D-02 -0.576114D-04 -0.157541D-02 -0.216087D-04 -0.807895D-05
      8 -0.532747D-02 -0.463500D-03 -0.409132D-05  0.199069D-04 -0.125240D-03
      9  0.265167D-01  0.176452D-02 -0.761436D-03  0.140611D-05  0.447074D-04
     10  0.199401D-04 -0.284433D-03 -0.617554D-04  0.116036D-02 -0.153841D-01
     11 -0.186071D-03  0.369922D-04  0.256611D-03  0.145778D-02 -0.478142D-02
     12 -0.228061D-03  0.781026D-03 -0.388393D-04  0.204229D-02 -0.219863D-01
     13 -0.251761D-01 -0.697599D-02  0.306394D-01  0.574675D-04  0.107918D-03
     14 -0.176654D-02 -0.990650D-02  0.502697D-01 -0.477597D-04  0.607596D-04
     15  0.261769D-02  0.482104D-01 -0.260744D+00  0.527056D-04  0.173353D-03
     16  0.211367D-04  0.108906D-03  0.100098D-03 -0.934452D-01  0.157605D-02
     17 -0.287784D-05  0.287730D-04 -0.108679D-03 -0.150662D-01 -0.243606D-01
     18  0.118868D-03 -0.367015D-03  0.510113D-04 -0.130230D+00 -0.384335D-02
                6             7             8             9            10 
      6  0.180016D+00
      7 -0.803606D-04  0.273216D+00
      8 -0.361036D-04  0.147839D-01  0.235139D-02
      9 -0.421287D-04  0.149632D-01 -0.405392D-02  0.270043D-01
     10 -0.209044D-02 -0.261978D-03  0.792993D-03 -0.306877D-04  0.165555D-01
     11  0.823874D-03  0.210076D-03  0.338720D-03 -0.113035D-03 -0.368480D-01
     12 -0.271495D-02  0.175473D-04 -0.778069D-04 -0.802174D-04  0.107657D-01
     13  0.104868D-03 -0.267616D+00 -0.988599D-02 -0.414803D-01 -0.599821D-03
     14 -0.369278D-04 -0.148383D-01 -0.200934D-02  0.237441D-02 -0.533906D-03
     15  0.134993D-03 -0.133958D-01  0.413572D-02 -0.261943D-01  0.215852D-03
     16 -0.126146D+00  0.121312D-03 -0.382762D-03  0.299016D-04 -0.168751D-01
     17 -0.263890D-01 -0.903868D-04 -0.928164D-04 -0.179134D-04  0.522581D-01
     18 -0.177341D+00  0.686619D-04  0.367112D-04  0.737295D-04 -0.879811D-02
               11            12            13            14            15 
     11  0.263344D+00
     12  0.142562D-01  0.200223D-01
     13 -0.189985D-03  0.300829D-03  0.293086D+00
     14 -0.700345D-03 -0.589741D-03  0.165704D-01  0.145161D-01
     15 -0.200465D-03 -0.679907D-03  0.106043D-01 -0.521732D-01  0.287192D+00
     16  0.355570D-01 -0.128977D-01  0.249715D-03  0.614503D-03 -0.934794D-04
     17 -0.258238D+00  0.761771D-02  0.374885D-03 -0.195802D-02 -0.143533D-03
     18 -0.150219D-01 -0.165086D-01 -0.166763D-03  0.154335D-03  0.292201D-03
               16            17            18 
     16  0.109930D+00
     17 -0.374747D-01  0.284620D+00
     18  0.139006D+00  0.190390D-01  0.193433D+00
 Red2BG is reusing G-inverse.
 Force constants in internal coordinates: 
                1             2             3             4             5 
      1  0.274866D+00
      2 -0.841936D-04  0.274964D+00
      3  0.112976D-03  0.108067D-03  0.219951D-02
      4 -0.120665D-02 -0.125363D-03 -0.183361D-03  0.274968D+00
      5 -0.125420D-03 -0.117435D-02  0.210248D-02 -0.389673D-03  0.271281D+00
      6  0.331073D-03  0.183444D-03  0.548296D-02  0.504097D-03  0.537597D-02
      7  0.324936D-04 -0.106329D-03 -0.327924D-03  0.743074D-03  0.221564D-04
      8  0.966887D-02  0.410765D-04  0.224534D-03  0.983616D-02 -0.137597D-03
      9 -0.173934D-04  0.997018D-02  0.612505D-03 -0.451416D-03  0.919839D-02
     10  0.159186D-03  0.629275D-04 -0.687444D-04  0.298341D-04 -0.159815D-04
     11  0.431839D-03  0.809167D-04 -0.198322D-03  0.399271D-03  0.400296D-03
     12  0.954900D-04  0.383531D-05 -0.196406D-04 -0.653027D-04 -0.116419D-04
                6             7             8             9            10 
      6  0.214335D-01
      7  0.243402D-02  0.302723D-02
      8  0.114579D-02 -0.159949D-03  0.173768D+00
      9  0.457723D-03 -0.125727D-02 -0.441364D-03  0.170199D+00
     10  0.190921D-03  0.468307D-03 -0.229214D-03  0.665403D-03  0.909333D-03
     11  0.996595D-03  0.106254D-02 -0.836101D-03  0.862237D-03  0.569443D-03
     12 -0.148130D-03  0.295811D-03 -0.123027D-03 -0.352666D-05  0.408406D-03
               11            12 
     11  0.388989D-02
     12 -0.119644D-03  0.354156D-03
 Leave Link  716 at Fri Jan  3 11:23:09 2025, MaxMem=   104857600 cpu:               0.0 elap:               0.0
 (Enter /opt/g16/l9999.exe)
 Unable to Open any file for archive entry.
 1\1\GINC-GPUNODE01\Freq\External='python3 -u ../pes/h4s2_pes.py'\ZDO\H
 4S2\JHLI\03-Jan-2025\0\\#p external="python3 -u ../pes/h4s2_pes.py" op
 t=(nomicro,calcall)\\min-5\\0,1\H,0.1931456779,2.0835282913,-1.2143440
 689\H,-0.1033605364,-2.4250629255,-1.2244633256\H,-1.2828060354,1.7639
 094767,-0.0063938725\H,0.4698678486,-0.9645104814,-0.0894358327\S,0.05
 10562049,1.8321668138,0.0934718324\S,0.6720968404,-2.290031175,-0.1410
 827127\\Version=ES64L-G16RevC.01\HF=-797.9201312\RMSD=0.000e+00\RMSF=1
 .314e-06\ZeroPoint=0.0317861\Thermal=0.0390194\ETot=-797.8811118\HTot=
 -797.8801677\GTot=-797.9208998\Dipole=0.,0.,0.\PG=C01 [X(H4S2)]\NImag=
 0\\0.03059876,0.00720675,0.01043158,-0.02902890,-0.05038011,0.26154540
 ,-0.00002505,0.00000332,-0.00007483,0.09227292,0.00007531,-0.00012819,
 -0.00003442,0.01363341,0.02933500,0.00000362,-0.00000787,-0.00005354,0
 .12820825,0.02564714,0.18001623,-0.00543867,-0.00005761,-0.00157541,-0
 .00002161,-0.00000808,-0.00008036,0.27321649,-0.00532747,-0.00046350,-
 0.00000409,0.00001991,-0.00012524,-0.00003610,0.01478392,0.00235139,0.
 02651666,0.00176452,-0.00076144,0.00000141,0.00004471,-0.00004213,0.01
 496316,-0.00405392,0.02700429,0.00001994,-0.00028443,-0.00006176,0.001
 16036,-0.01538410,-0.00209044,-0.00026198,0.00079299,-0.00003069,0.016
 55554,-0.00018607,0.00003699,0.00025661,0.00145778,-0.00478142,0.00082
 387,0.00021008,0.00033872,-0.00011303,-0.03684797,0.26334365,-0.000228
 06,0.00078103,-0.00003884,0.00204229,-0.02198631,-0.00271495,0.0000175
 5,-0.00007781,-0.00008022,0.01076568,0.01425625,0.02002230,-0.02517605
 ,-0.00697599,0.03063942,0.00005747,0.00010792,0.00010487,-0.26761633,-
 0.00988599,-0.04148034,-0.00059982,-0.00018999,0.00030083,0.29308581,-
 0.00176654,-0.00990650,0.05026971,-0.00004776,0.00006076,-0.00003693,-
 0.01483834,-0.00200934,0.00237441,-0.00053391,-0.00070035,-0.00058974,
 0.01657035,0.01451608,0.00261769,0.04821036,-0.26074387,0.00005271,0.0
 0017335,0.00013499,-0.01339576,0.00413572,-0.02619430,0.00021585,-0.00
 020046,-0.00067991,0.01060426,-0.05217318,0.28719223,0.00002114,0.0001
 0891,0.00010010,-0.09344520,0.00157605,-0.12614561,0.00012131,-0.00038
 276,0.00002990,-0.01687506,0.03555699,-0.01289771,0.00024971,0.0006145
 0,-0.00009348,0.10993017,-0.00000288,0.00002877,-0.00010868,-0.0150661
 8,-0.02436057,-0.02638904,-0.00009039,-0.00009282,-0.00001791,0.052258
 08,-0.25823825,0.00761771,0.00037488,-0.00195802,-0.00014353,-0.037474
 67,0.28462021,0.00011887,-0.00036702,0.00005101,-0.13022955,-0.0038433
 5,-0.17734111,0.00006866,0.00003671,0.00007373,-0.00879811,-0.01502193
 ,-0.01650857,-0.00016676,0.00015433,0.00029220,0.13900599,0.01903900,0
 .19343339\\0.00000169,0.00000060,0.00000117,0.00000118,0.00000080,-0.0
 0000182,-0.00000069,-0.00000030,-0.00000225,-0.00000225,-0.00000006,-0
 .00000115,-0.00000156,-0.00000096,-0.00000132,-0.00000095,-0.00000055,
 0.00000168\\\@
 The archive entry for this job was punched.


 ABALONE: AN EXPRESSION OF DISBELIEF.
 Job cpu time:       0 days  0 hours  0 minutes  0.8 seconds.
 Elapsed time:       0 days  0 hours  0 minutes  2.9 seconds.
 File lengths (MBytes):  RWF=      6 Int=      0 D2E=      0 Chk=      1 Scr=      1
 Normal termination of Gaussian 16 at Fri Jan  3 11:23:09 2025.
