 Entering Gaussian System, Link 0=g16
 Initial command:
 /opt/g16/l1.exe "/home/jhli/scratch/g16/Gau-112754.inp" -scrdir="/home/jhli/scratch/g16/"
 Entering Link 1 = /opt/g16/l1.exe PID=    112764.
  
 Copyright (c) 1988-2019, Gaussian, Inc.  All Rights Reserved.
  
 This is part of the Gaussian(R) 16 program.  It is based on
 the Gaussian(R) 09 system (copyright 2009, Gaussian, Inc.),
 the Gaussian(R) 03 system (copyright 2003, Gaussian, Inc.),
 the Gaussian(R) 98 system (copyright 1998, Gaussian, Inc.),
 the Gaussian(R) 94 system (copyright 1995, Gaussian, Inc.),
 the Gaussian 92(TM) system (copyright 1992, Gaussian, Inc.),
 the Gaussian 90(TM) system (copyright 1990, Gaussian, Inc.),
 the Gaussian 88(TM) system (copyright 1988, Gaussian, Inc.),
 the Gaussian 86(TM) system (copyright 1986, Carnegie Mellon
 University), and the Gaussian 82(TM) system (copyright 1983,
 Carnegie Mellon University). Gaussian is a federally registered
 trademark of Gaussian, Inc.
  
 This software contains proprietary and confidential information,
 including trade secrets, belonging to Gaussian, Inc.
  
 This software is provided under written license and may be
 used, copied, transmitted, or stored only in accord with that
 written license.
  
 The following legend is applicable only to US Government
 contracts under FAR:
  
                    RESTRICTED RIGHTS LEGEND
  
 Use, reproduction and disclosure by the US Government is
 subject to restrictions as set forth in subparagraphs (a)
 and (c) of the Commercial Computer Software - Restricted
 Rights clause in FAR 52.227-19.
  
 Gaussian, Inc.
 340 Quinnipiac St., Bldg. 40, Wallingford CT 06492
  
  
 ---------------------------------------------------------------
 Warning -- This program may not be used in any manner that
 competes with the business of Gaussian, Inc. or will provide
 assistance to any competitor of Gaussian, Inc.  The licensee
 of this program is prohibited from giving any competitor of
 Gaussian, Inc. access to this program.  By using this program,
 the user acknowledges that Gaussian, Inc. is engaged in the
 business of creating and licensing software in the field of
 computational chemistry and represents and warrants to the
 licensee that it is not a competitor of Gaussian, Inc. and that
 it will not use this program in any manner prohibited above.
 ---------------------------------------------------------------
  

 Cite this work as:
 Gaussian 16, Revision C.01,
 M. J. Frisch, G. W. Trucks, H. B. Schlegel, G. E. Scuseria, 
 M. A. Robb, J. R. Cheeseman, G. Scalmani, V. Barone, 
 G. A. Petersson, H. Nakatsuji, X. Li, M. Caricato, A. V. Marenich, 
 J. Bloino, B. G. Janesko, R. Gomperts, B. Mennucci, H. P. Hratchian, 
 J. V. Ortiz, A. F. Izmaylov, J. L. Sonnenberg, D. Williams-Young, 
 F. Ding, F. Lipparini, F. Egidi, J. Goings, B. Peng, A. Petrone, 
 T. Henderson, D. Ranasinghe, V. G. Zakrzewski, J. Gao, N. Rega, 
 G. Zheng, W. Liang, M. Hada, M. Ehara, K. Toyota, R. Fukuda, 
 J. Hasegawa, M. Ishida, T. Nakajima, Y. Honda, O. Kitao, H. Nakai, 
 T. Vreven, K. Throssell, J. A. Montgomery, Jr., J. E. Peralta, 
 F. Ogliaro, M. J. Bearpark, J. J. Heyd, E. N. Brothers, K. N. Kudin, 
 V. N. Staroverov, T. A. Keith, R. Kobayashi, J. Normand, 
 K. Raghavachari, A. P. Rendell, J. C. Burant, S. S. Iyengar, 
 J. Tomasi, M. Cossi, J. M. Millam, M. Klene, C. Adamo, R. Cammi, 
 J. W. Ochterski, R. L. Martin, K. Morokuma, O. Farkas, 
 J. B. Foresman, and D. J. Fox, Gaussian, Inc., Wallingford CT, 2019.
 
 ******************************************
 Gaussian 16:  ES64L-G16RevC.01  3-Jul-2019
                 3-Jan-2025 
 ******************************************
 %nproc=1
 Will use up to    1 processors via shared memory.
 %chk=min-4-opt-freq.chk
 ----------------------------------------------------------------------
 #p external="python3 -u ../pes/h4s2_pes.py" opt=(nomicro,calcall,gdiis
 )
 ----------------------------------------------------------------------

 Warning!  Use of Opt=GDIIS is deprecated since it is seldom a good choice.

 1/10=4,18=20,19=11,26=1,38=1/1,3;
 2/9=110,12=2,17=6,18=5,40=1/2;
 3/11=9,25=1,30=1,41=9900000,43=2,71=2,140=1/1;
 4/20=17,22=2,24=3,113=1,114=1/2;
 6/7=2,8=2,9=2,10=2,18=1/1;
 7/25=1,44=-1/16;
 1/10=4,18=20,19=11,26=1/3(3);
 2/9=110/2;
 7/8=1,9=1,25=1,44=-1/16;
 99//99;
 2/9=110/2;
 3/11=9,25=1,30=1,41=9900000,43=2,71=2,140=1/1;
 4/16=2,20=17,22=2,24=3,113=1,114=1/2;
 7/25=1,44=-1/16;
 1/10=4,18=20,19=11,26=1/3(-4);
 2/9=110/2;
 6/7=2,8=2,9=2,10=2,18=1/1;
 7/8=1,9=1,25=1,44=-1/16;
 99//99;
 Leave Link    1 at Fri Jan  3 11:19:03 2025, MaxMem=           0 cpu:               0.0 elap:               0.0
 (Enter /opt/g16/l101.exe)
 -----
 min-4
 -----
 Symbolic Z-matrix:
 Charge =  0 Multiplicity = 1
 H                     2.34221   1.11366   0.30643 
 H                     1.02853   0.25085  -0.82119 
 H                    -2.34408  -1.11447  -0.30245 
 H                    -1.02321  -0.24949   0.81513 
 S                     2.0291   -0.14602  -0.02295 
 S                    -2.02997   0.14575   0.02387 
 
 Add virtual bond connecting atoms H4         and H2         Dist= 5.05D+00.
 ITRead=  0  0  0  0  0  0
 MicOpt= -1 -1 -1 -1 -1 -1
 NAtoms=      6 NQM=        6 NQMF=       0 NMMI=      0 NMMIF=      0
                NMic=       0 NMicF=      0.
                    Isotopes and Nuclear Properties:
 (Nuclear quadrupole moments (NQMom) in fm**2, nuclear magnetic moments (NMagM)
  in nuclear magnetons)

  Atom         1           2           3           4           5           6
 IAtWgt=           1           1           1           1          32          32
 AtmWgt=   1.0078250   1.0078250   1.0078250   1.0078250  31.9720718  31.9720718
 NucSpn=           1           1           1           1           0           0
 AtZEff=  -0.0000000  -0.0000000  -0.0000000  -0.0000000  -0.0000000  -0.0000000
 NQMom=    0.0000000   0.0000000   0.0000000   0.0000000   0.0000000   0.0000000
 NMagM=    2.7928460   2.7928460   2.7928460   2.7928460   0.0000000   0.0000000
 AtZNuc=   1.0000000   1.0000000   1.0000000   1.0000000  16.0000000  16.0000000
 Leave Link  101 at Fri Jan  3 11:19:03 2025, MaxMem=   104857600 cpu:               0.1 elap:               0.1
 (Enter /opt/g16/l103.exe)

 GradGradGradGradGradGradGradGradGradGradGradGradGradGradGradGradGradGrad
 Berny optimization.
 Initialization pass.
                           ----------------------------
                           !    Initial Parameters    !
                           ! (Angstroms and Degrees)  !
 --------------------------                            --------------------------
 ! Name  Definition              Value          Derivative Info.                !
 --------------------------------------------------------------------------------
 ! R1    R(1,5)                  1.3392         calculate D2E/DX2 analytically  !
 ! R2    R(2,4)                  2.6716         calculate D2E/DX2 analytically  !
 ! R3    R(2,5)                  1.3401         calculate D2E/DX2 analytically  !
 ! R4    R(3,6)                  1.3391         calculate D2E/DX2 analytically  !
 ! R5    R(4,6)                  1.3401         calculate D2E/DX2 analytically  !
 ! A1    A(4,2,5)               98.8075         calculate D2E/DX2 analytically  !
 ! A2    A(2,4,6)               99.2113         calculate D2E/DX2 analytically  !
 ! A3    A(1,5,2)               92.4362         calculate D2E/DX2 analytically  !
 ! A4    A(3,6,4)               92.4382         calculate D2E/DX2 analytically  !
 ! D1    D(5,2,4,6)            179.9718         calculate D2E/DX2 analytically  !
 ! D2    D(4,2,5,1)           -101.6025         calculate D2E/DX2 analytically  !
 ! D3    D(2,4,6,3)            101.72           calculate D2E/DX2 analytically  !
 --------------------------------------------------------------------------------
 Trust Radius=3.00D-01 FncErr=1.00D-07 GrdErr=1.00D-07 EigMax=2.50D+02 EigMin=1.00D-04
 Number of steps in this run=     22 maximum allowed number of steps=    100.
 GradGradGradGradGradGradGradGradGradGradGradGradGradGradGradGradGradGrad

 Leave Link  103 at Fri Jan  3 11:19:03 2025, MaxMem=   104857600 cpu:               0.0 elap:               0.0
 (Enter /opt/g16/l202.exe)
                          Input orientation:                          
 ---------------------------------------------------------------------
 Center     Atomic      Atomic             Coordinates (Angstroms)
 Number     Number       Type             X           Y           Z
 ---------------------------------------------------------------------
      1          1           0        2.342206    1.113662    0.306432
      2          1           0        1.028531    0.250850   -0.821185
      3          1           0       -2.344082   -1.114474   -0.302445
      4          1           0       -1.023209   -0.249494    0.815127
      5         16           0        2.029102   -0.146018   -0.022952
      6         16           0       -2.029966    0.145750    0.023873
 ---------------------------------------------------------------------
                    Distance matrix (angstroms):
                    1          2          3          4          5
     1  H    0.000000
     2  H    1.934350   0.000000
     3  H    5.224617   3.675285   0.000000
     4  H    3.666468   2.671610   1.934390   0.000000
     5  S    1.339150   1.340084   4.487846   3.166968   0.000000
     6  S    4.486935   3.174834   1.339147   1.340097   4.069811
                    6
     6  S    0.000000
 Stoichiometry    H4S2
 Framework group  C1[X(H4S2)]
 Deg. of freedom    12
 Full point group                 C1      NOp   1
 Largest Abelian subgroup         C1      NOp   1
 Largest concise Abelian subgroup C1      NOp   1
                         Standard orientation:                         
 ---------------------------------------------------------------------
 Center     Atomic      Atomic             Coordinates (Angstroms)
 Number     Number       Type             X           Y           Z
 ---------------------------------------------------------------------
      1          1           0        2.308278   -1.217207   -0.108185
      2          1           0        1.031954   -0.121264    0.846602
      3          1           0       -2.309601    1.217219    0.104856
      4          1           0       -1.026016    0.120830   -0.839710
      5         16           0        2.032669    0.090252   -0.019225
      6         16           0       -2.032958   -0.090226    0.019002
 ---------------------------------------------------------------------
 Rotational constants (GHZ):         103.4161535           1.8132093           1.8006741
 Leave Link  202 at Fri Jan  3 11:19:03 2025, MaxMem=   104857600 cpu:               0.0 elap:               0.0
 (Enter /opt/g16/l301.exe)
 Standard basis: STO-3G (5D, 7F)
 Ernie: Thresh=  0.10000D-02 Tol=  0.10000D-05 Strict=F.
 There are    22 symmetry adapted cartesian basis functions of A   symmetry.
 There are    22 symmetry adapted basis functions of A   symmetry.
    22 basis functions,    66 primitive gaussians,    22 cartesian basis functions
    18 alpha electrons       18 beta electrons
       nuclear repulsion energy        68.8164740632 Hartrees.
 IExCor=    0 DFT=F Ex=HF Corr=None ExCW=0 ScaHFX=  1.000000
 ScaDFX=  1.000000  1.000000  1.000000  1.000000 ScalE2=  1.000000  1.000000
 IRadAn=      5 IRanWt=     -1 IRanGd=            0 ICorTp=0 IEmpDi=  4
 NAtoms=    6 NActive=    6 NUniq=    6 SFac= 1.00D+00 NAtFMM=   60 NAOKFM=F Big=F
 Integral buffers will be    131072 words long.
 Raffenetti 1 integral format.
 Two-electron integral symmetry is turned on.
 Leave Link  301 at Fri Jan  3 11:19:03 2025, MaxMem=   104857600 cpu:               0.0 elap:               0.0
 (Enter /opt/g16/l402.exe)
 External calculation of energy, first and second derivatives.
 Running external command "python3 -u ../pes/h4s2_pes.py R"
         input file       "/home/jhli/scratch/g16/Gau-112764.EIn"
         output file      "/home/jhli/scratch/g16/Gau-112764.EOu"
         message file     "/home/jhli/scratch/g16/Gau-112764.EMs"
         fchk file        "/home/jhli/scratch/g16/Gau-112764.EFC"
         mat. el file     "/home/jhli/scratch/g16/Gau-112764.EUF"
 initialization done
 Recovered energy= -797.920063558     dipole=      0.000000000000      0.000000000000      0.000000000000
 Energy=    -797.920064     NIter=   0.
 Dipole moment=       0.000000       0.000000       0.000000
 Leave Link  402 at Fri Jan  3 11:19:03 2025, MaxMem=   104857600 cpu:               0.0 elap:               0.2
 (Enter /opt/g16/l601.exe)
 Leave Link  601 at Fri Jan  3 11:19:03 2025, MaxMem=   104857600 cpu:               0.0 elap:               0.0
 (Enter /opt/g16/l716.exe)
 Dipole        = 0.00000000D+00 0.00000000D+00 0.00000000D+00
 ***** Axes restored to original set *****
 -------------------------------------------------------------------
 Center     Atomic                   Forces (Hartrees/Bohr)
 Number     Number              X              Y              Z
 -------------------------------------------------------------------
      1        1           0.000007614    0.000082944    0.000024335
      2        1          -0.000064021    0.000011624   -0.000052648
      3        1          -0.000007848   -0.000083087   -0.000024113
      4        1           0.000066620   -0.000011494    0.000051040
      5       16           0.000072514   -0.000102217    0.000023071
      6       16          -0.000074884    0.000102225   -0.000021675
 -------------------------------------------------------------------
 Cartesian Forces:  Max     0.000102225 RMS     0.000058701
 Force constants in Cartesian coordinates: 
                1             2             3             4             5 
      1  0.308751D-01
      2  0.562311D-01  0.243830D+00
      3  0.285554D-01  0.599948D-01  0.272534D-01
      4 -0.606604D-02  0.283432D-02 -0.481065D-02  0.154675D+00
      5 -0.192164D-01  0.458099D-02 -0.156347D-01 -0.527260D-01  0.473002D-01
      6 -0.605514D-02  0.252626D-02 -0.494710D-02  0.123351D+00 -0.407621D-01
      7  0.173701D-03  0.357756D-04 -0.383382D-04  0.491785D-04 -0.179855D-03
      8  0.359080D-04  0.146471D-03  0.248534D-04 -0.993741D-04 -0.857016D-04
      9 -0.377474D-04  0.247381D-04 -0.317302D-04 -0.152140D-03  0.237457D-03
     10  0.503022D-04 -0.997524D-04 -0.153977D-03 -0.384788D-03 -0.192523D-03
     11 -0.185362D-03 -0.873025D-04  0.240220D-03 -0.194305D-03 -0.264814D-05
     12 -0.268196D-03  0.519779D-04  0.388701D-04  0.772072D-03  0.292580D-03
     13 -0.245765D-01 -0.589362D-01 -0.236575D-01 -0.148174D+00  0.718779D-01
     14 -0.371204D-01 -0.248336D+00 -0.444849D-01  0.499524D-01 -0.516138D-01
     15 -0.224369D-01 -0.625557D-01 -0.224043D-01 -0.118976D+00  0.562827D-01
     16 -0.456116D-03 -0.657034D-04  0.105565D-03 -0.995482D-04  0.436082D-03
     17  0.255458D-03 -0.134412D-03 -0.139615D-03  0.234207D-03 -0.178963D-03
     18  0.243621D-03 -0.432448D-04  0.914407D-04 -0.183623D-03 -0.417516D-03
                6             7             8             9            10 
      6  0.100378D+00
      7 -0.266947D-03  0.311607D-01
      8  0.522283D-04  0.564524D-01  0.244029D+00
      9  0.384602D-04  0.284258D-01  0.594831D-01  0.267623D-01
     10  0.768361D-03 -0.612262D-02  0.283678D-02 -0.478415D-02  0.156554D+00
     11  0.291964D-03 -0.193453D-01  0.455509D-02 -0.155073D-01 -0.528158D-01
     12 -0.590620D-03 -0.603571D-02  0.249284D-02 -0.485942D-02  0.123006D+00
     13 -0.117422D+00 -0.457415D-03 -0.658637D-04  0.103484D-03 -0.107857D-03
     14  0.381181D-01  0.254425D-03 -0.135097D-03 -0.137949D-03  0.235236D-03
     15 -0.947106D-01  0.245296D-03 -0.434048D-04  0.916422D-04 -0.180920D-03
     16 -0.374798D-03 -0.248030D-01 -0.591603D-01 -0.235547D-01 -0.149989D+00
     17 -0.225360D-03 -0.372171D-01 -0.248511D+00 -0.440993D-01  0.500373D-01
     18 -0.167412D-03 -0.223290D-01 -0.620107D-01 -0.220007D-01 -0.118655D+00
               11            12            13            14            15 
     11  0.471420D-01
     12 -0.402064D-01  0.986478D-01
     13  0.443395D-03 -0.372771D-03  0.174617D+00
     14 -0.183008D-03 -0.225836D-03 -0.129007D-01  0.299673D+00
     15 -0.420959D-03 -0.173471D-03  0.141212D+00  0.643577D-02  0.117046D+00
     16  0.720966D-01 -0.117101D+00 -0.130172D-02 -0.419694D-03  0.136692D-03
     17 -0.514241D-01  0.375960D-01 -0.420074D-03  0.596296D-03  0.299766D-03
     18  0.556009D-01 -0.930625D-01  0.136236D-03  0.297485D-03  0.149591D-03
               16            17            18 
     16  0.176649D+00
     17 -0.128885D-01  0.299652D+00
     18  0.140788D+00  0.657123D-02  0.114988D+00
 FormGI is forming the generalized inverse of G from B-inverse, IUseBI=4.
 Force constants in internal coordinates: 
                1             2             3             4             5 
      1  0.274863D+00
      2  0.180019D-03  0.194550D-02
      3 -0.970358D-03  0.112370D-02  0.274218D+00
      4 -0.163417D-03  0.180161D-03  0.463334D-04  0.274866D+00
      5  0.462357D-04  0.113196D-02  0.565665D-03 -0.969415D-03  0.274194D+00
      6  0.291921D-03  0.239448D-02  0.187047D-02  0.175621D-03  0.298891D-02
      7  0.172498D-03  0.235457D-02  0.294745D-02  0.290225D-03  0.183838D-02
      8  0.973732D-02  0.263975D-03  0.979257D-02  0.616094D-05  0.124219D-03
      9  0.612466D-05  0.269113D-03  0.126100D-03  0.973568D-02  0.978826D-02
     10 -0.179210D-03  0.000000D+00  0.190283D-03  0.178827D-03 -0.193119D-03
     11 -0.157914D-03 -0.340252D-05 -0.244351D-03  0.108648D-03 -0.519064D-03
     12 -0.107164D-03  0.479571D-05  0.512203D-03  0.154585D-03  0.243224D-03
                6             7             8             9            10 
      6  0.679192D-02
      7  0.756019D-02  0.664965D-02
      8  0.824143D-03  0.136689D-02  0.172175D+00
      9  0.138671D-02  0.826002D-03 -0.289406D-03  0.172140D+00
     10  0.163740D-03 -0.166597D-03 -0.101308D-02  0.102603D-02  0.161267D-02
     11 -0.516944D-03 -0.105071D-02  0.127872D-02  0.629025D-03  0.117410D-02
     12  0.105046D-02  0.514034D-03 -0.618975D-03 -0.127817D-02  0.116243D-02
               11            12 
     11  0.165836D-02
     12  0.609043D-03  0.163522D-02
 Leave Link  716 at Fri Jan  3 11:19:03 2025, MaxMem=   104857600 cpu:               0.0 elap:               0.0
 (Enter /opt/g16/l103.exe)

 GradGradGradGradGradGradGradGradGradGradGradGradGradGradGradGradGradGrad
 Berny optimization.
 Red2BG is reusing G-inverse.
 Internal  Forces:  Max     0.000099495 RMS     0.000056126
 Search for a local minimum.
 Step number   1 out of a maximum of   22
 All quantities printed in internal units (Hartrees-Bohrs-Radians)
 Swapping is turned off.
 Second derivative matrix not updated -- analytic derivatives used.
 The second derivative matrix:
                          R1        R2        R3        R4        R5
           R1           0.27486
           R2           0.00018   0.00195
           R3          -0.00097   0.00112   0.27422
           R4          -0.00016   0.00018   0.00005   0.27487
           R5           0.00005   0.00113   0.00057  -0.00097   0.27419
           A1           0.00029   0.00239   0.00187   0.00018   0.00299
           A2           0.00017   0.00235   0.00295   0.00029   0.00184
           A3           0.00974   0.00026   0.00979   0.00001   0.00012
           A4           0.00001   0.00027   0.00013   0.00974   0.00979
           D1          -0.00018   0.00000   0.00019   0.00018  -0.00019
           D2          -0.00016  -0.00000  -0.00024   0.00011  -0.00052
           D3          -0.00011   0.00000   0.00051   0.00015   0.00024
                          A1        A2        A3        A4        D1
           A1           0.00679
           A2           0.00756   0.00665
           A3           0.00082   0.00137   0.17218
           A4           0.00139   0.00083  -0.00029   0.17214
           D1           0.00016  -0.00017  -0.00101   0.00103   0.00161
           D2          -0.00052  -0.00105   0.00128   0.00063   0.00117
           D3           0.00105   0.00051  -0.00062  -0.00128   0.00116
                          D2        D3
           D2           0.00166
           D3           0.00061   0.00164
 ITU=  0
     Eigenvalues ---   -0.00094   0.00026   0.00057   0.00137   0.00369
     Eigenvalues ---    0.01518   0.17005   0.17063   0.27455   0.27562
     Eigenvalues ---    0.27583   0.27595
 Eigenvalue     1 is  -9.38D-04 should be greater than     0.000000 Eigenvector:
                          A2        A1        D2        D3        D1
   1                    0.69763  -0.69264   0.12869   0.12693  -0.02875
                          R2        R5        R3        A3        A4
   1                    0.00543   0.00286  -0.00280  -0.00275   0.00271
 Angle between quadratic step and forces=  75.26 degrees.
 Linear search not attempted -- option 19 set.
 Iteration  1 RMS(Cart)=  0.03251169 RMS(Int)=  0.00061996
 Iteration  2 RMS(Cart)=  0.00044975 RMS(Int)=  0.00000007
 Iteration  3 RMS(Cart)=  0.00000013 RMS(Int)=  0.00000000
 ITry= 1 IFail=0 DXMaxC= 6.07D-02 DCOld= 1.00D+10 DXMaxT= 3.00D-01 DXLimC= 3.00D+00 Rises=F
 Variable       Old X    -DE/DX   Delta X   Delta X   Delta X     New X
                                 (Linear)    (Quad)   (Total)
    R1        2.53063   0.00008   0.00000   0.00033   0.00033   2.53096
    R2        5.04861   0.00001   0.00000  -0.02049  -0.02049   5.02812
    R3        2.53239   0.00010   0.00000   0.00039   0.00039   2.53279
    R4        2.53062   0.00008   0.00000   0.00033   0.00033   2.53095
    R5        2.53242   0.00010   0.00000   0.00043   0.00043   2.53284
    A1        1.72452   0.00003   0.00000   0.00778   0.00778   1.73230
    A2        1.73156   0.00004   0.00000   0.01429   0.01429   1.74585
    A3        1.61332  -0.00001   0.00000  -0.00073  -0.00073   1.61259
    A4        1.61335  -0.00001   0.00000  -0.00072  -0.00072   1.61263
    D1        3.14110  -0.00000   0.00000   0.00030   0.00030   3.14140
    D2       -1.77330   0.00003   0.00000   0.04756   0.04756  -1.72573
    D3        1.77535  -0.00003   0.00000  -0.04757  -0.04757   1.72777
         Item               Value     Threshold  Converged?
 Maximum Force            0.000099     0.000450     YES
 RMS     Force            0.000056     0.000300     YES
 Maximum Displacement     0.060704     0.001800     NO 
 RMS     Displacement     0.032487     0.001200     NO 
 Predicted change in Energy=-1.804923D-06
 GradGradGradGradGradGradGradGradGradGradGradGradGradGradGradGradGradGrad

 Leave Link  103 at Fri Jan  3 11:19:03 2025, MaxMem=   104857600 cpu:               0.0 elap:               0.0
 (Enter /opt/g16/l202.exe)
                          Input orientation:                          
 ---------------------------------------------------------------------
 Center     Atomic      Atomic             Coordinates (Angstroms)
 Number     Number       Type             X           Y           Z
 ---------------------------------------------------------------------
      1          1           0        2.310083    1.109696    0.319593
      2          1           0        1.023578    0.233663   -0.828294
      3          1           0       -2.313338   -1.111610   -0.312810
      4          1           0       -1.014767   -0.230639    0.817684
      5         16           0        2.033044   -0.151694   -0.035286
      6         16           0       -2.036018    0.150862    0.037962
 ---------------------------------------------------------------------
                    Distance matrix (angstroms):
                    1          2          3          4          5
     1  H    0.000000
     2  H    1.933953   0.000000
     3  H    5.168187   3.634623   0.000000
     4  H    3.619285   2.660765   1.934014   0.000000
     5  S    1.339326   1.340292   4.459763   3.165903   0.000000
     6  S    4.459516   3.180940   1.339321   1.340323   4.080952
                    6
     6  S    0.000000
 Stoichiometry    H4S2
 Framework group  C1[X(H4S2)]
 Deg. of freedom    12
 Full point group                 C1      NOp   1
 RotChk:  IX=0 Diff= 6.98D-02
 Largest Abelian subgroup         C1      NOp   1
 Largest concise Abelian subgroup C1      NOp   1
                         Standard orientation:                         
 ---------------------------------------------------------------------
 Center     Atomic      Atomic             Coordinates (Angstroms)
 Number     Number       Type             X           Y           Z
 ---------------------------------------------------------------------
      1          1           0        2.270868   -1.230224   -0.072209
      2          1           0        1.032196   -0.066201    0.850243
      3          1           0       -2.271834    1.230368    0.067440
      4          1           0       -1.020936    0.065241   -0.837074
      5         16           0        2.038151    0.087772   -0.021955
      6         16           0       -2.038795   -0.087721    0.021430
 ---------------------------------------------------------------------
 Rotational constants (GHZ):         103.0836666           1.8060477           1.7934316
 Leave Link  202 at Fri Jan  3 11:19:03 2025, MaxMem=   104857600 cpu:               0.0 elap:               0.0
 (Enter /opt/g16/l301.exe)
 Standard basis: STO-3G (5D, 7F)
 Ernie: Thresh=  0.10000D-02 Tol=  0.10000D-05 Strict=F.
 There are    22 symmetry adapted cartesian basis functions of A   symmetry.
 There are    22 symmetry adapted basis functions of A   symmetry.
    22 basis functions,    66 primitive gaussians,    22 cartesian basis functions
    18 alpha electrons       18 beta electrons
       nuclear repulsion energy        68.7466775736 Hartrees.
 IExCor=    0 DFT=F Ex=HF Corr=None ExCW=0 ScaHFX=  1.000000
 ScaDFX=  1.000000  1.000000  1.000000  1.000000 ScalE2=  1.000000  1.000000
 IRadAn=      5 IRanWt=     -1 IRanGd=            0 ICorTp=0 IEmpDi=  4
 NAtoms=    6 NActive=    6 NUniq=    6 SFac= 1.00D+00 NAtFMM=   60 NAOKFM=F Big=F
 Integral buffers will be    131072 words long.
 Raffenetti 1 integral format.
 Two-electron integral symmetry is turned on.
 Leave Link  301 at Fri Jan  3 11:19:03 2025, MaxMem=   104857600 cpu:               0.0 elap:               0.0
 (Enter /opt/g16/l402.exe)
 External calculation of energy, first and second derivatives.
 Running external command "python3 -u ../pes/h4s2_pes.py R"
         input file       "/home/jhli/scratch/g16/Gau-112764.EIn"
         output file      "/home/jhli/scratch/g16/Gau-112764.EOu"
         message file     "/home/jhli/scratch/g16/Gau-112764.EMs"
         fchk file        "/home/jhli/scratch/g16/Gau-112764.EFC"
         mat. el file     "/home/jhli/scratch/g16/Gau-112764.EUF"
 initialization done
 Recovered energy= -797.920063559     dipole=      0.000000000000      0.000000000000      0.000000000000
 Energy=    -797.920064     NIter=   0.
 Dipole moment=       0.000000       0.000000       0.000000
 Leave Link  402 at Fri Jan  3 11:19:03 2025, MaxMem=   104857600 cpu:               0.0 elap:               0.2
 (Enter /opt/g16/l716.exe)
 Dipole        = 0.00000000D+00 0.00000000D+00 0.00000000D+00
 ***** Axes restored to original set *****
 -------------------------------------------------------------------
 Center     Atomic                   Forces (Hartrees/Bohr)
 Number     Number              X              Y              Z
 -------------------------------------------------------------------
      1        1          -0.000001017    0.000006527   -0.000000831
      2        1           0.000005116   -0.000000369   -0.000005719
      3        1           0.000000766   -0.000006476    0.000001373
      4        1          -0.000001900    0.000000523    0.000002608
      5       16          -0.000006522    0.000000412    0.000000671
      6       16           0.000003545   -0.000000627    0.000001919
 -------------------------------------------------------------------
 Cartesian Forces:  Max     0.000006527 RMS     0.000003482
 Force constants in Cartesian coordinates: 
                1             2             3             4             5 
      1  0.278094D-01
      2  0.494724D-01  0.244105D+00
      3  0.278241D-01  0.650775D-01  0.298589D-01
      4 -0.560899D-02  0.263784D-02 -0.436804D-02  0.156783D+00
      5 -0.193287D-01  0.436262D-02 -0.156166D-01 -0.519688D-01  0.460054D-01
      6 -0.652537D-02  0.254584D-02 -0.523768D-02  0.123400D+00 -0.384915D-01
      7  0.201081D-03  0.437050D-04 -0.405573D-04  0.377443D-04 -0.200034D-03
      8  0.442189D-04  0.158955D-03  0.363706D-04 -0.118728D-03 -0.929506D-04
      9 -0.394716D-04  0.363339D-04 -0.343791D-04 -0.127896D-03  0.241344D-03
     10  0.391762D-04 -0.119708D-03 -0.131334D-03 -0.401518D-03 -0.193448D-03
     11 -0.210051D-03 -0.957580D-04  0.246477D-03 -0.196985D-03  0.692879D-05
     12 -0.244166D-03  0.405040D-04  0.353980D-04  0.779228D-03  0.287594D-03
     13 -0.220166D-01 -0.519644D-01 -0.233840D-01 -0.150744D+00  0.712647D-01
     14 -0.302461D-01 -0.248393D+00 -0.495917D-01  0.494065D-01 -0.500935D-01
     15 -0.212483D-01 -0.676591D-01 -0.247079D-01 -0.119468D+00  0.539839D-01
     16 -0.423497D-03 -0.703431D-04  0.100423D-03 -0.662977D-04  0.425394D-03
     17  0.268440D-03 -0.138416D-03 -0.151259D-03  0.241329D-03 -0.188302D-03
     18  0.234293D-03 -0.421710D-04  0.864481D-04 -0.215210D-03 -0.406300D-03
                6             7             8             9            10 
      6  0.993451D-01
      7 -0.241277D-03  0.281903D-01
      8  0.406644D-04  0.495878D-01  0.244497D+00
      9  0.344931D-04  0.275996D-01  0.644483D-01  0.290732D-01
     10  0.772574D-03 -0.568754D-02  0.263338D-02 -0.430409D-02  0.160375D+00
     11  0.286722D-03 -0.195727D-01  0.429932D-02 -0.153782D-01 -0.520204D-01
     12 -0.601692D-03 -0.651935D-02  0.248424D-02 -0.508777D-02  0.122708D+00
     13 -0.117006D+00 -0.424811D-03 -0.716563D-04  0.965215D-04 -0.806590D-04
     14  0.358245D-01  0.267080D-03 -0.139364D-03 -0.148418D-03  0.242596D-03
     15 -0.933857D-01  0.236957D-03 -0.419537D-04  0.868624D-04 -0.210298D-03
     16 -0.400284D-03 -0.223161D-01 -0.520755D-01 -0.232241D-01 -0.154244D+00
     17 -0.205312D-03 -0.301255D-01 -0.248724D+00 -0.491986D-01  0.494587D-01
     18 -0.153699D-03 -0.210342D-01 -0.669687D-01 -0.240717D-01 -0.118835D+00
               11            12            13            14            15 
     11  0.456317D-01
     12 -0.373393D-01  0.961050D-01
     13  0.437928D-03 -0.395370D-03  0.174631D+00
     14 -0.196213D-03 -0.206667D-03 -0.192960D-01  0.298217D+00
     15 -0.412700D-03 -0.165199D-03  0.140517D+00  0.138381D-01  0.118014D+00
     16  0.715613D-01 -0.116329D+00 -0.136580D-02 -0.372723D-03  0.173032D-03
     17 -0.496458D-01  0.347346D-01 -0.371973D-03  0.606242D-03  0.290094D-03
     18  0.525954D-01 -0.902851D-01  0.171305D-03  0.286886D-03  0.156826D-03
               16            17            18 
     16  0.178415D+00
     17 -0.194697D-01  0.298091D+00
     18  0.139679D+00  0.145333D-01  0.114266D+00
 FormGI is forming the generalized inverse of G from B-inverse, IUseBI=4.
 Force constants in internal coordinates: 
                1             2             3             4             5 
      1  0.274613D+00
      2  0.180151D-03  0.192908D-02
      3 -0.967383D-03  0.111197D-02  0.273925D+00
      4 -0.180443D-03  0.180437D-03  0.286518D-04  0.274617D+00
      5  0.283055D-04  0.112767D-02  0.588117D-03 -0.965848D-03  0.273875D+00
      6  0.294119D-03  0.233653D-02  0.184959D-02  0.150473D-03  0.301389D-02
      7  0.145264D-03  0.226163D-02  0.293454D-02  0.290252D-03  0.179151D-02
      8  0.976945D-02  0.178828D-03  0.979089D-02 -0.161261D-04  0.915412D-04
      9 -0.165200D-04  0.185983D-03  0.942797D-04  0.976683D-02  0.978119D-02
     10 -0.167662D-03  0.000000D+00  0.142606D-03  0.167017D-03 -0.145985D-03
     11 -0.161369D-03 -0.602572D-05 -0.170176D-03  0.115052D-03 -0.448334D-03
     12 -0.112225D-03  0.864786D-05  0.436985D-03  0.155431D-03  0.167161D-03
                6             7             8             9            10 
      6  0.660819D-02
      7  0.743398D-02  0.635044D-02
      8  0.630128D-03  0.112382D-02  0.172174D+00
      9  0.115142D-02  0.626383D-03 -0.348276D-03  0.172108D+00
     10  0.932752D-04 -0.990950D-04 -0.103097D-02  0.105532D-02  0.163214D-02
     11 -0.423993D-03 -0.841609D-03  0.122548D-02  0.745909D-03  0.117023D-02
     12  0.839414D-03  0.417515D-03 -0.725691D-03 -0.122206D-02  0.114838D-02
               11            12 
     11  0.172114D-02
     12  0.681072D-03  0.167808D-02
 Leave Link  716 at Fri Jan  3 11:19:03 2025, MaxMem=   104857600 cpu:               0.0 elap:               0.0
 (Enter /opt/g16/l103.exe)

 GradGradGradGradGradGradGradGradGradGradGradGradGradGradGradGradGradGrad
 Berny optimization.
 Using GDIIS optimizer.
 Red2BG is reusing G-inverse.
 Internal  Forces:  Max     0.000013675 RMS     0.000004515
 Search for a local minimum.
 Step number   2 out of a maximum of   22
 All quantities printed in internal units (Hartrees-Bohrs-Radians)
 Swapping is turned off.
 Second derivative matrix not updated -- analytic derivatives used.
 DE= -6.00D-10 DEPred=-1.80D-06 R= 3.32D-04
 Trust test= 3.32D-04 RLast= 7.22D-02 DXMaxT set to 1.50D-01
 The second derivative matrix:
                          R1        R2        R3        R4        R5
           R1           0.27461
           R2           0.00018   0.00193
           R3          -0.00097   0.00111   0.27393
           R4          -0.00018   0.00018   0.00003   0.27462
           R5           0.00003   0.00113   0.00059  -0.00097   0.27387
           A1           0.00029   0.00234   0.00185   0.00015   0.00301
           A2           0.00015   0.00226   0.00293   0.00029   0.00179
           A3           0.00977   0.00018   0.00979  -0.00002   0.00009
           A4          -0.00002   0.00019   0.00009   0.00977   0.00978
           D1          -0.00017   0.00000   0.00014   0.00017  -0.00015
           D2          -0.00016  -0.00001  -0.00017   0.00012  -0.00045
           D3          -0.00011   0.00001   0.00044   0.00016   0.00017
                          A1        A2        A3        A4        D1
           A1           0.00661
           A2           0.00743   0.00635
           A3           0.00063   0.00112   0.17217
           A4           0.00115   0.00063  -0.00035   0.17211
           D1           0.00009  -0.00010  -0.00103   0.00106   0.00163
           D2          -0.00042  -0.00084   0.00123   0.00075   0.00117
           D3           0.00084   0.00042  -0.00073  -0.00122   0.00115
                          D2        D3
           D2           0.00172
           D3           0.00068   0.00168
 ITU= -1  0
     Eigenvalues ---   -0.00102   0.00033   0.00067   0.00131   0.00372
     Eigenvalues ---    0.01474   0.16996   0.17065   0.27424   0.27535
     Eigenvalues ---    0.27553   0.27573
 Eigenvalue     1 is  -1.02D-03 should be greater than     0.000000 Eigenvector:
                          A2        A1        D2        D3        D1
   1                    0.70391  -0.69488   0.10136   0.09882  -0.03834
                          R2        R5        R3        A3        A4
   1                    0.01060   0.00299  -0.00287  -0.00245   0.00241
 DIIS coeff's:      0.97022      0.02978
 Cosine:  0.996 >  0.500
 Length:  0.999
 GDIIS step was calculated using  2 of the last  2 vectors.
 Iteration  1 RMS(Cart)=  0.00505563 RMS(Int)=  0.00001631
 Iteration  2 RMS(Cart)=  0.00002007 RMS(Int)=  0.00000000
 Iteration  3 RMS(Cart)=  0.00000000 RMS(Int)=  0.00000000
 ITry= 1 IFail=0 DXMaxC= 9.04D-03 DCOld= 1.00D+10 DXMaxT= 1.50D-01 DXLimC= 3.00D+00 Rises=F
 Variable       Old X    -DE/DX   Delta X   Delta X   Delta X     New X
                                 (Linear)    (Quad)   (Total)
    R1        2.53096   0.00000  -0.00001   0.00002   0.00001   2.53097
    R2        5.02812   0.00000   0.00061   0.00305   0.00366   5.03177
    R3        2.53279  -0.00000  -0.00001  -0.00002  -0.00003   2.53275
    R4        2.53095   0.00000  -0.00001   0.00002   0.00001   2.53096
    R5        2.53284  -0.00000  -0.00001   0.00003   0.00002   2.53286
    A1        1.73230  -0.00001  -0.00023  -0.00627  -0.00650   1.72580
    A2        1.74585  -0.00000  -0.00043   0.00459   0.00416   1.75002
    A3        1.61259   0.00000   0.00002  -0.00002  -0.00000   1.61259
    A4        1.61263   0.00000   0.00002   0.00001   0.00004   1.61267
    D1        3.14140  -0.00000  -0.00001  -0.00049  -0.00050   3.14090
    D2       -1.72573   0.00000  -0.00142   0.00191   0.00050  -1.72524
    D3        1.72777  -0.00000   0.00142  -0.00033   0.00109   1.72886
         Item               Value     Threshold  Converged?
 Maximum Force            0.000014     0.000450     YES
 RMS     Force            0.000005     0.000300     YES
 Maximum Displacement     0.009043     0.001800     NO 
 RMS     Displacement     0.005056     0.001200     NO 
 Predicted change in Energy=-1.036396D-07
 GradGradGradGradGradGradGradGradGradGradGradGradGradGradGradGradGradGrad

 Leave Link  103 at Fri Jan  3 11:19:03 2025, MaxMem=   104857600 cpu:               0.0 elap:               0.0
 (Enter /opt/g16/l202.exe)
                          Input orientation:                          
 ---------------------------------------------------------------------
 Center     Atomic      Atomic             Coordinates (Angstroms)
 Number     Number       Type             X           Y           Z
 ---------------------------------------------------------------------
      1          1           0        2.308389    1.109010    0.322320
      2          1           0        1.027333    0.234886   -0.833079
      3          1           0       -2.315063   -1.112250   -0.310076
      4          1           0       -1.012182   -0.229904    0.814440
      5         16           0        2.031261   -0.152007   -0.033841
      6         16           0       -2.037156    0.150542    0.039085
 ---------------------------------------------------------------------
                    Distance matrix (angstroms):
                    1          2          3          4          5
     1  H    0.000000
     2  H    1.933944   0.000000
     3  H    5.168194   3.641418   0.000000
     4  H    3.614009   2.662700   1.934055   0.000000
     5  S    1.339334   1.340276   4.459698   3.160411   0.000000
     6  S    4.458996   3.187300   1.339324   1.340331   4.080303
                    6
     6  S    0.000000
 Stoichiometry    H4S2
 Framework group  C1[X(H4S2)]
 Deg. of freedom    12
 Full point group                 C1      NOp   1
 RotChk:  IX=0 Diff= 5.04D-04
 Largest Abelian subgroup         C1      NOp   1
 Largest concise Abelian subgroup C1      NOp   1
                         Standard orientation:                         
 ---------------------------------------------------------------------
 Center     Atomic      Atomic             Coordinates (Angstroms)
 Number     Number       Type             X           Y           Z
 ---------------------------------------------------------------------
      1          1           0        2.270404   -1.230112   -0.074238
      2          1           0        1.037188   -0.066712    0.856257
      3          1           0       -2.272391    1.230286    0.066066
      4          1           0       -1.017049    0.065432   -0.832712
      5         16           0        2.037580    0.087802   -0.022197
      6         16           0       -2.038714   -0.087733    0.021236
 ---------------------------------------------------------------------
 Rotational constants (GHZ):         103.0211156           1.8065569           1.7939553
 Leave Link  202 at Fri Jan  3 11:19:03 2025, MaxMem=   104857600 cpu:               0.0 elap:               0.0
 (Enter /opt/g16/l301.exe)
 Standard basis: STO-3G (5D, 7F)
 Ernie: Thresh=  0.10000D-02 Tol=  0.10000D-05 Strict=F.
 There are    22 symmetry adapted cartesian basis functions of A   symmetry.
 There are    22 symmetry adapted basis functions of A   symmetry.
    22 basis functions,    66 primitive gaussians,    22 cartesian basis functions
    18 alpha electrons       18 beta electrons
       nuclear repulsion energy        68.7513253805 Hartrees.
 IExCor=    0 DFT=F Ex=HF Corr=None ExCW=0 ScaHFX=  1.000000
 ScaDFX=  1.000000  1.000000  1.000000  1.000000 ScalE2=  1.000000  1.000000
 IRadAn=      5 IRanWt=     -1 IRanGd=            0 ICorTp=0 IEmpDi=  4
 NAtoms=    6 NActive=    6 NUniq=    6 SFac= 1.00D+00 NAtFMM=   60 NAOKFM=F Big=F
 Integral buffers will be    131072 words long.
 Raffenetti 1 integral format.
 Two-electron integral symmetry is turned on.
 Leave Link  301 at Fri Jan  3 11:19:03 2025, MaxMem=   104857600 cpu:               0.0 elap:               0.0
 (Enter /opt/g16/l402.exe)
 External calculation of energy, first and second derivatives.
 Running external command "python3 -u ../pes/h4s2_pes.py R"
         input file       "/home/jhli/scratch/g16/Gau-112764.EIn"
         output file      "/home/jhli/scratch/g16/Gau-112764.EOu"
         message file     "/home/jhli/scratch/g16/Gau-112764.EMs"
         fchk file        "/home/jhli/scratch/g16/Gau-112764.EFC"
         mat. el file     "/home/jhli/scratch/g16/Gau-112764.EUF"
 initialization done
 Recovered energy= -797.920063678     dipole=      0.000000000000      0.000000000000      0.000000000000
 Energy=    -797.920064     NIter=   0.
 Dipole moment=       0.000000       0.000000       0.000000
 Leave Link  402 at Fri Jan  3 11:19:04 2025, MaxMem=   104857600 cpu:               0.0 elap:               0.2
 (Enter /opt/g16/l716.exe)
 Dipole        = 0.00000000D+00 0.00000000D+00 0.00000000D+00
 ***** Axes restored to original set *****
 -------------------------------------------------------------------
 Center     Atomic                   Forces (Hartrees/Bohr)
 Number     Number              X              Y              Z
 -------------------------------------------------------------------
      1        1          -0.000001872    0.000003785   -0.000001936
      2        1           0.000002578   -0.000000108   -0.000003389
      3        1           0.000001022   -0.000003873    0.000002967
      4        1           0.000002797    0.000001121   -0.000002321
      5       16          -0.000001783    0.000002041    0.000002765
      6       16          -0.000002763   -0.000002981    0.000001954
 -------------------------------------------------------------------
 Cartesian Forces:  Max     0.000003873 RMS     0.000002521
 Force constants in Cartesian coordinates: 
                1             2             3             4             5 
      1  0.276497D-01
      2  0.494687D-01  0.243964D+00
      3  0.279106D-01  0.652557D-01  0.301590D-01
      4 -0.557442D-02  0.263927D-02 -0.439951D-02  0.155111D+00
      5 -0.192173D-01  0.438792D-02 -0.157282D-01 -0.518956D-01  0.461582D-01
      6 -0.651676D-02  0.257090D-02 -0.529991D-02  0.123708D+00 -0.390162D-01
      7  0.201153D-03  0.433206D-04 -0.410236D-04  0.367667D-04 -0.195926D-03
      8  0.442143D-04  0.158787D-03  0.361838D-04 -0.118259D-03 -0.914120D-04
      9 -0.391411D-04  0.361260D-04 -0.342641D-04 -0.126552D-03  0.239025D-03
     10  0.395343D-04 -0.119863D-03 -0.132766D-03 -0.397505D-03 -0.191522D-03
     11 -0.213794D-03 -0.964927D-04  0.248212D-03 -0.197872D-03  0.637859D-05
     12 -0.245409D-03  0.403776D-04  0.357335D-04  0.780254D-03  0.287334D-03
     13 -0.218919D-01 -0.519624D-01 -0.234387D-01 -0.149114D+00  0.710789D-01
     14 -0.303508D-01 -0.248277D+00 -0.496591D-01  0.493329D-01 -0.502755D-01
     15 -0.213417D-01 -0.678622D-01 -0.249460D-01 -0.119744D+00  0.546198D-01
     16 -0.423440D-03 -0.695649D-04  0.102050D-03 -0.613243D-04  0.420612D-03
     17  0.269351D-03 -0.138148D-03 -0.152155D-03  0.240771D-03 -0.185407D-03
     18  0.233568D-03 -0.420843D-04  0.862336D-04 -0.218078D-03 -0.403365D-03
                6             7             8             9            10 
      6  0.100876D+00
      7 -0.240334D-03  0.283541D-01
      8  0.406086D-04  0.497148D-01  0.244607D+00
      9  0.341987D-04  0.275378D-01  0.641836D-01  0.287888D-01
     10  0.768329D-03 -0.571888D-02  0.263481D-02 -0.428757D-02  0.161521D+00
     11  0.285828D-03 -0.196507D-01  0.428225D-02 -0.152980D-01 -0.520533D-01
     12 -0.601144D-03 -0.651109D-02  0.246481D-02 -0.503517D-02  0.122457D+00
     13 -0.117316D+00 -0.426011D-03 -0.716822D-04  0.951045D-04 -0.873106D-04
     14  0.363243D-01  0.266881D-03 -0.139908D-03 -0.147146D-03  0.243148D-03
     15 -0.948594D-01  0.238369D-03 -0.416620D-04  0.870040D-04 -0.209164D-03
     16 -0.403701D-03 -0.224465D-01 -0.522044D-01 -0.231791D-01 -0.155357D+00
     17 -0.204457D-03 -0.301781D-01 -0.248818D+00 -0.490129D-01  0.494879D-01
     18 -0.148964D-03 -0.209825D-01 -0.666847D-01 -0.238398D-01 -0.118595D+00
               11            12            13            14            15 
     11  0.455343D-01
     12 -0.369950D-01  0.950490D-01
     13  0.443419D-03 -0.394972D-03  0.172887D+00
     14 -0.199423D-03 -0.206922D-03 -0.191169D-01  0.298285D+00
     15 -0.414914D-03 -0.169448D-03  0.140882D+00  0.134062D-01  0.119729D+00
     16  0.716715D-01 -0.116086D+00 -0.136854D-02 -0.373808D-03  0.174195D-03
     17 -0.495268D-01  0.344104D-01 -0.372874D-03  0.607126D-03  0.291075D-03
     18  0.521722D-01 -0.892782D-01  0.171184D-03  0.285370D-03  0.157319D-03
               16            17            18 
     16  0.179656D+00
     17 -0.194458D-01  0.298061D+00
     18  0.139391D+00  0.146709D-01  0.113022D+00
 FormGI is forming the generalized inverse of G from B-inverse, IUseBI=4.
 Force constants in internal coordinates: 
                1             2             3             4             5 
      1  0.274604D+00
      2  0.179856D-03  0.192595D-02
      3 -0.968742D-03  0.110735D-02  0.273952D+00
      4 -0.180155D-03  0.180417D-03  0.284917D-04  0.274611D+00
      5  0.280570D-04  0.113536D-02  0.586425D-03 -0.965996D-03  0.273861D+00
      6  0.295807D-03  0.237252D-02  0.187850D-02  0.152829D-03  0.304948D-02
      7  0.143473D-03  0.223853D-02  0.290778D-02  0.288998D-03  0.177455D-02
      8  0.976981D-02  0.177256D-03  0.979366D-02 -0.155007D-04  0.899329D-04
      9 -0.161357D-04  0.190686D-03  0.949746D-04  0.976503D-02  0.977635D-02
     10 -0.168024D-03  0.191495D-05  0.141347D-03  0.166826D-03 -0.147499D-03
     11 -0.163383D-03 -0.546067D-05 -0.173063D-03  0.116159D-03 -0.453121D-03
     12 -0.111124D-03  0.105707D-04  0.432733D-03  0.152636D-03  0.168303D-03
                6             7             8             9            10 
      6  0.674490D-02
      7  0.746037D-02  0.628237D-02
      8  0.633851D-03  0.111432D-02  0.172196D+00
      9  0.116521D-02  0.627358D-03 -0.347652D-03  0.172080D+00
     10  0.918975D-04 -0.100375D-03 -0.102083D-02  0.106423D-02  0.163260D-02
     11 -0.430159D-03 -0.845756D-03  0.123138D-02  0.753183D-03  0.118065D-02
     12  0.842493D-03  0.420384D-03 -0.717374D-03 -0.122506D-02  0.114177D-02
               11            12 
     11  0.173416D-02
     12  0.683188D-03  0.165758D-02
 Leave Link  716 at Fri Jan  3 11:19:04 2025, MaxMem=   104857600 cpu:               0.0 elap:               0.0
 (Enter /opt/g16/l103.exe)

 GradGradGradGradGradGradGradGradGradGradGradGradGradGradGradGradGradGrad
 Berny optimization.
 Using GDIIS optimizer.
 Red2BG is reusing G-inverse.
 Internal  Forces:  Max     0.000010621 RMS     0.000004169
 Search for a local minimum.
 Step number   3 out of a maximum of   22
 All quantities printed in internal units (Hartrees-Bohrs-Radians)
 Swapping is turned off.
 Second derivative matrix not updated -- analytic derivatives used.
 DE= -1.19D-07 DEPred=-1.04D-07 R= 1.15D+00
 Trust test= 1.15D+00 RLast= 8.64D-03 DXMaxT set to 1.50D-01
 The second derivative matrix:
                          R1        R2        R3        R4        R5
           R1           0.27460
           R2           0.00018   0.00193
           R3          -0.00097   0.00111   0.27395
           R4          -0.00018   0.00018   0.00003   0.27461
           R5           0.00003   0.00114   0.00059  -0.00097   0.27386
           A1           0.00030   0.00237   0.00188   0.00015   0.00305
           A2           0.00014   0.00224   0.00291   0.00029   0.00177
           A3           0.00977   0.00018   0.00979  -0.00002   0.00009
           A4          -0.00002   0.00019   0.00009   0.00977   0.00978
           D1          -0.00017   0.00000   0.00014   0.00017  -0.00015
           D2          -0.00016  -0.00001  -0.00017   0.00012  -0.00045
           D3          -0.00011   0.00001   0.00043   0.00015   0.00017
                          A1        A2        A3        A4        D1
           A1           0.00674
           A2           0.00746   0.00628
           A3           0.00063   0.00111   0.17220
           A4           0.00117   0.00063  -0.00035   0.17208
           D1           0.00009  -0.00010  -0.00102   0.00106   0.00163
           D2          -0.00043  -0.00085   0.00123   0.00075   0.00118
           D3           0.00084   0.00042  -0.00072  -0.00123   0.00114
                          D2        D3
           D2           0.00173
           D3           0.00068   0.00166
 ITU=  0 -1  0
     Eigenvalues ---   -0.00101   0.00033   0.00067   0.00131   0.00372
     Eigenvalues ---    0.01480   0.16996   0.17065   0.27424   0.27535
     Eigenvalues ---    0.27554   0.27572
 Eigenvalue     1 is  -1.01D-03 should be greater than     0.000000 Eigenvector:
                          A2        A1        D2        D3        D1
   1                    0.70733  -0.69116   0.10276   0.09766  -0.03871
                          R2        R5        R3        A3        A4
   1                    0.01894   0.00303  -0.00282  -0.00246   0.00240
 Cosine: -0.998 <  0.500
 Cut down GDIIS permanently because of the cosine check. E 8
 DIIS coeff's:      1.43405     -0.43405
 Cosine:  1.000 >  0.500
 Length:  1.428
 GDIIS step was calculated using  2 of the last  3 vectors.
 Iteration  1 RMS(Cart)=  0.01334517 RMS(Int)=  0.00010524
 Iteration  2 RMS(Cart)=  0.00013593 RMS(Int)=  0.00000000
 Iteration  3 RMS(Cart)=  0.00000000 RMS(Int)=  0.00000000
 ITry= 1 IFail=0 DXMaxC= 2.05D-02 DCOld= 1.00D+10 DXMaxT= 1.50D-01 DXLimC= 3.00D+00 Rises=F
 Variable       Old X    -DE/DX   Delta X   Delta X   Delta X     New X
                                 (Linear)    (Quad)   (Total)
    R1        2.53097   0.00000   0.00001   0.00000   0.00001   2.53098
    R2        5.03177   0.00000   0.00159  -0.00106   0.00053   5.03231
    R3        2.53275   0.00000  -0.00001  -0.00004  -0.00006   2.53270
    R4        2.53096   0.00000   0.00000  -0.00001  -0.00001   2.53095
    R5        2.53286   0.00000   0.00001   0.00006   0.00006   2.53292
    A1        1.72580  -0.00001  -0.00282  -0.01121  -0.01403   1.71176
    A2        1.75002   0.00001   0.00181   0.01252   0.01432   1.76434
    A3        1.61259   0.00000  -0.00000  -0.00005  -0.00005   1.61254
    A4        1.61267   0.00000   0.00002   0.00004   0.00005   1.61272
    D1        3.14090  -0.00000  -0.00022  -0.00075  -0.00097   3.13993
    D2       -1.72524   0.00000   0.00022   0.00185   0.00206  -1.72317
    D3        1.72886   0.00000   0.00047   0.00191   0.00238   1.73124
         Item               Value     Threshold  Converged?
 Maximum Force            0.000011     0.000450     YES
 RMS     Force            0.000004     0.000300     YES
 Maximum Displacement     0.020505     0.001800     NO 
 RMS     Displacement     0.013347     0.001200     NO 
 Predicted change in Energy=-5.021068D-07
 GradGradGradGradGradGradGradGradGradGradGradGradGradGradGradGradGradGrad

 Leave Link  103 at Fri Jan  3 11:19:04 2025, MaxMem=   104857600 cpu:               0.0 elap:               0.0
 (Enter /opt/g16/l202.exe)
                          Input orientation:                          
 ---------------------------------------------------------------------
 Center     Atomic      Atomic             Coordinates (Angstroms)
 Number     Number       Type             X           Y           Z
 ---------------------------------------------------------------------
      1          1           0        2.303861    1.107094    0.329659
      2          1           0        1.036020    0.237730   -0.843662
      3          1           0       -2.319549   -1.114139   -0.302570
      4          1           0       -1.004053   -0.227169    0.803590
      5         16           0        2.027314   -0.152882   -0.030634
      6         16           0       -2.041011    0.149641    0.042468
 ---------------------------------------------------------------------
                    Distance matrix (angstroms):
                    1          2          3          4          5
     1  H    0.000000
     2  H    1.933881   0.000000
     3  H    5.168125   3.657893   0.000000
     4  H    3.598217   2.662981   1.934124   0.000000
     5  S    1.339339   1.340245   4.460178   3.144938   0.000000
     6  S    4.458375   3.203296   1.339319   1.340364   4.080213
                    6
     6  S    0.000000
 Stoichiometry    H4S2
 Framework group  C1[X(H4S2)]
 Deg. of freedom    12
 Full point group                 C1      NOp   1
 RotChk:  IX=0 Diff= 1.37D-04
 Largest Abelian subgroup         C1      NOp   1
 Largest concise Abelian subgroup C1      NOp   1
                         Standard orientation:                         
 ---------------------------------------------------------------------
 Center     Atomic      Atomic             Coordinates (Angstroms)
 Number     Number       Type             X           Y           Z
 ---------------------------------------------------------------------
      1          1           0        2.269072   -1.230008   -0.079183
      2          1           0        1.049297   -0.067533    0.869869
      3          1           0       -2.273671    1.230326    0.061400
      4          1           0       -1.005575    0.064943   -0.818745
      5         16           0        2.036879    0.087844   -0.022766
      6         16           0       -2.039324   -0.087702    0.020682
 ---------------------------------------------------------------------
 Rotational constants (GHZ):         103.0087429           1.8066172           1.7940193
 Leave Link  202 at Fri Jan  3 11:19:04 2025, MaxMem=   104857600 cpu:               0.0 elap:               0.0
 (Enter /opt/g16/l301.exe)
 Standard basis: STO-3G (5D, 7F)
 Ernie: Thresh=  0.10000D-02 Tol=  0.10000D-05 Strict=F.
 There are    22 symmetry adapted cartesian basis functions of A   symmetry.
 There are    22 symmetry adapted basis functions of A   symmetry.
    22 basis functions,    66 primitive gaussians,    22 cartesian basis functions
    18 alpha electrons       18 beta electrons
       nuclear repulsion energy        68.7519963717 Hartrees.
 IExCor=    0 DFT=F Ex=HF Corr=None ExCW=0 ScaHFX=  1.000000
 ScaDFX=  1.000000  1.000000  1.000000  1.000000 ScalE2=  1.000000  1.000000
 IRadAn=      5 IRanWt=     -1 IRanGd=            0 ICorTp=0 IEmpDi=  4
 NAtoms=    6 NActive=    6 NUniq=    6 SFac= 1.00D+00 NAtFMM=   60 NAOKFM=F Big=F
 Integral buffers will be    131072 words long.
 Raffenetti 1 integral format.
 Two-electron integral symmetry is turned on.
 Leave Link  301 at Fri Jan  3 11:19:04 2025, MaxMem=   104857600 cpu:               0.0 elap:               0.0
 (Enter /opt/g16/l402.exe)
 External calculation of energy, first and second derivatives.
 Running external command "python3 -u ../pes/h4s2_pes.py R"
         input file       "/home/jhli/scratch/g16/Gau-112764.EIn"
         output file      "/home/jhli/scratch/g16/Gau-112764.EOu"
         message file     "/home/jhli/scratch/g16/Gau-112764.EMs"
         fchk file        "/home/jhli/scratch/g16/Gau-112764.EFC"
         mat. el file     "/home/jhli/scratch/g16/Gau-112764.EUF"
 initialization done
 Recovered energy= -797.920064064     dipole=      0.000000000000      0.000000000000      0.000000000000
 Energy=    -797.920064     NIter=   0.
 Dipole moment=       0.000000       0.000000       0.000000
 Leave Link  402 at Fri Jan  3 11:19:04 2025, MaxMem=   104857600 cpu:               0.0 elap:               0.2
 (Enter /opt/g16/l716.exe)
 Dipole        = 0.00000000D+00 0.00000000D+00 0.00000000D+00
 ***** Axes restored to original set *****
 -------------------------------------------------------------------
 Center     Atomic                   Forces (Hartrees/Bohr)
 Number     Number              X              Y              Z
 -------------------------------------------------------------------
      1        1          -0.000002363    0.000003718   -0.000001266
      2        1           0.000006112    0.000000428   -0.000006969
      3        1           0.000000551   -0.000003908    0.000003492
      4        1           0.000005581    0.000001760   -0.000005356
      5       16          -0.000003407    0.000001502    0.000005392
      6       16          -0.000006521   -0.000003531    0.000004793
 -------------------------------------------------------------------
 Cartesian Forces:  Max     0.000006969 RMS     0.000004208
 Force constants in Cartesian coordinates: 
                1             2             3             4             5 
      1  0.272234D-01
      2  0.493050D-01  0.243587D+00
      3  0.281083D-01  0.658874D-01  0.309753D-01
      4 -0.548631D-02  0.264045D-02 -0.446133D-02  0.151320D+00
      5 -0.189582D-01  0.444844D-02 -0.159757D-01 -0.517594D-01  0.465235D-01
      6 -0.651566D-02  0.263359D-02 -0.545703D-02  0.124300D+00 -0.402028D-01
      7  0.201176D-03  0.427786D-04 -0.421028D-04  0.352644D-04 -0.185794D-03
      8  0.446573D-04  0.158527D-03  0.361070D-04 -0.117363D-03 -0.883573D-04
      9 -0.380367D-04  0.359722D-04 -0.342629D-04 -0.123067D-03  0.233523D-03
     10  0.413382D-04 -0.120836D-03 -0.136521D-03 -0.396896D-03 -0.187751D-03
     11 -0.224654D-03 -0.994447D-04  0.253438D-03 -0.201498D-03  0.625093D-05
     12 -0.248515D-03  0.401393D-04  0.367423D-04  0.787077D-03  0.288202D-03
     13 -0.215568D-01 -0.517997D-01 -0.235739D-01 -0.145425D+00  0.706827D-01
     14 -0.304376D-01 -0.247958D+00 -0.500457D-01  0.491995D-01 -0.507121D-01
     15 -0.215358D-01 -0.685560D-01 -0.256055D-01 -0.120279D+00  0.560518D-01
     16 -0.422189D-03 -0.682447D-04  0.106163D-03 -0.466447D-04  0.407537D-03
     17  0.271081D-03 -0.136888D-03 -0.154861D-03  0.239440D-03 -0.177571D-03
     18  0.230797D-03 -0.421739D-04  0.856181D-04 -0.223090D-03 -0.396578D-03
                6             7             8             9            10 
      6  0.104323D+00
      7 -0.237581D-03  0.287775D-01
      8  0.406642D-04  0.498915D-01  0.244966D+00
      9  0.334366D-04  0.273117D-01  0.635434D-01  0.279929D-01
     10  0.761153D-03 -0.580417D-02  0.263294D-02 -0.422155D-02  0.165227D+00
     11  0.284880D-03 -0.198982D-01  0.422239D-02 -0.150397D-01 -0.521263D-01
     12 -0.601131D-03 -0.650217D-02  0.240421D-02 -0.488117D-02  0.121574D+00
     13 -0.117900D+00 -0.427941D-03 -0.726689D-04  0.911320D-04 -0.103056D-03
     14  0.374477D-01  0.265624D-03 -0.140778D-03 -0.144013D-03  0.244679D-03
     15 -0.981607D-01  0.241268D-03 -0.412928D-04  0.873047D-04 -0.203767D-03
     16 -0.408096D-03 -0.227812D-01 -0.523795D-01 -0.230196D-01 -0.158964D+00
     17 -0.203040D-03 -0.301156D-01 -0.249119D+00 -0.486284D-01  0.495585D-01
     18 -0.137190D-03 -0.207699D-01 -0.659842D-01 -0.231975D-01 -0.117774D+00
               11            12            13            14            15 
     11  0.451890D-01
     12 -0.358369D-01  0.916625D-01
     13  0.457177D-03 -0.389301D-03  0.168883D+00
     14 -0.207953D-03 -0.208372D-03 -0.188963D-01  0.298412D+00
     15 -0.421608D-03 -0.181642D-03  0.141602D+00  0.126711D-01  0.123701D+00
     16  0.719927D-01 -0.115222D+00 -0.137132D-02 -0.374458D-03  0.175532D-03
     17 -0.491100D-01  0.333137D-01 -0.372643D-03  0.607436D-03  0.294272D-03
     18  0.507583D-01 -0.860347D-01  0.169060D-03  0.281853D-03  0.157806D-03
               16            17            18 
     16  0.183585D+00
     17 -0.195795D-01  0.297936D+00
     18  0.138367D+00  0.153812D-01  0.109125D+00
 FormGI is forming the generalized inverse of G from B-inverse, IUseBI=4.
 Force constants in internal coordinates: 
                1             2             3             4             5 
      1  0.274600D+00
      2  0.179494D-03  0.192842D-02
      3 -0.970589D-03  0.109266D-02  0.274004D+00
      4 -0.179842D-03  0.180692D-03  0.285827D-04  0.274615D+00
      5  0.276829D-04  0.115356D-02  0.586963D-03 -0.964633D-03  0.273805D+00
      6  0.299960D-03  0.245509D-02  0.194050D-02  0.158231D-03  0.313682D-02
      7  0.137898D-03  0.216404D-02  0.282912D-02  0.285186D-03  0.171487D-02
      8  0.977267D-02  0.169697D-03  0.980391D-02 -0.150062D-04  0.868982D-04
      9 -0.163691D-04  0.199207D-03  0.979238D-04  0.976218D-02  0.976640D-02
     10 -0.168691D-03  0.430309D-05  0.137602D-03  0.166119D-03 -0.151141D-03
     11 -0.169979D-03 -0.227606D-05 -0.175850D-03  0.119225D-03 -0.465192D-03
     12 -0.108273D-03  0.134593D-04  0.420967D-03  0.146596D-03  0.165788D-03
                6             7             8             9            10 
      6  0.703931D-02
      7  0.745715D-02  0.603451D-02
      8  0.638520D-03  0.108473D-02  0.172263D+00
      9  0.119618D-02  0.625210D-03 -0.346983D-03  0.172011D+00
     10  0.872363D-04 -0.105456D-03 -0.995374D-03  0.108952D-02  0.163272D-02
     11 -0.435507D-03 -0.847413D-03  0.123394D-02  0.774052D-03  0.120276D-02
     12  0.840824D-03  0.414774D-03 -0.696362D-03 -0.122047D-02  0.111849D-02
               11            12 
     11  0.177998D-02
     12  0.682112D-03  0.161341D-02
 Leave Link  716 at Fri Jan  3 11:19:04 2025, MaxMem=   104857600 cpu:               0.0 elap:               0.0
 (Enter /opt/g16/l103.exe)

 GradGradGradGradGradGradGradGradGradGradGradGradGradGradGradGradGradGrad
 Berny optimization.
 Using GDIIS optimizer.
 Red2BG is reusing G-inverse.
 Internal  Forces:  Max     0.000024033 RMS     0.000009063
 Search for a local minimum.
 Step number   4 out of a maximum of   22
 All quantities printed in internal units (Hartrees-Bohrs-Radians)
 Swapping is turned off.
 Second derivative matrix not updated -- analytic derivatives used.
 DE= -3.86D-07 DEPred=-5.02D-07 R= 7.69D-01
 Trust test= 7.69D-01 RLast= 2.03D-02 DXMaxT set to 1.50D-01
 The second derivative matrix:
                          R1        R2        R3        R4        R5
           R1           0.27460
           R2           0.00018   0.00193
           R3          -0.00097   0.00109   0.27400
           R4          -0.00018   0.00018   0.00003   0.27462
           R5           0.00003   0.00115   0.00059  -0.00096   0.27381
           A1           0.00030   0.00246   0.00194   0.00016   0.00314
           A2           0.00014   0.00216   0.00283   0.00029   0.00171
           A3           0.00977   0.00017   0.00980  -0.00002   0.00009
           A4          -0.00002   0.00020   0.00010   0.00976   0.00977
           D1          -0.00017   0.00000   0.00014   0.00017  -0.00015
           D2          -0.00017  -0.00000  -0.00018   0.00012  -0.00047
           D3          -0.00011   0.00001   0.00042   0.00015   0.00017
                          A1        A2        A3        A4        D1
           A1           0.00704
           A2           0.00746   0.00603
           A3           0.00064   0.00108   0.17226
           A4           0.00120   0.00063  -0.00035   0.17201
           D1           0.00009  -0.00011  -0.00100   0.00109   0.00163
           D2          -0.00044  -0.00085   0.00123   0.00077   0.00120
           D3           0.00084   0.00041  -0.00070  -0.00122   0.00112
                          D2        D3
           D2           0.00178
           D3           0.00068   0.00161
 ITU=  0  0 -1  0
     Eigenvalues ---   -0.00100   0.00033   0.00067   0.00131   0.00373
     Eigenvalues ---    0.01484   0.16994   0.17067   0.27424   0.27535
     Eigenvalues ---    0.27555   0.27572
 Eigenvalue     1 is  -1.00D-03 should be greater than     0.000000 Eigenvector:
                          A2        A1        D2        D3        R2
   1                    0.71604  -0.68103   0.10595   0.09493   0.04122
                          D1        R5        R3        A3        A4
   1                   -0.03904   0.00315  -0.00270  -0.00248   0.00236
 Cosine: -0.997 <  0.500
 Cut down GDIIS permanently because of the cosine check. E 8
 DIIS coeff's:      1.85714     -0.85714
 Cosine:  1.000 >  0.500
 Length:  2.020
 GDIIS step was calculated using  2 of the last  3 vectors.
 Iteration  1 RMS(Cart)=  0.04117796 RMS(Int)=  0.00100429
 Iteration  2 RMS(Cart)=  0.00130125 RMS(Int)=  0.00000022
 Iteration  3 RMS(Cart)=  0.00000032 RMS(Int)=  0.00000000
 ITry= 1 IFail=0 DXMaxC= 6.41D-02 DCOld= 1.00D+10 DXMaxT= 1.50D-01 DXLimC= 3.00D+00 Rises=F
 Variable       Old X    -DE/DX   Delta X   Delta X   Delta X     New X
                                 (Linear)    (Quad)   (Total)
    R1        2.53098   0.00000   0.00001   0.00002   0.00003   2.53102
    R2        5.03231   0.00000   0.00045   0.00176   0.00222   5.03452
    R3        2.53270   0.00000  -0.00005  -0.00012  -0.00017   2.53253
    R4        2.53095   0.00000  -0.00001  -0.00002  -0.00003   2.53091
    R5        2.53292   0.00000   0.00005   0.00015   0.00020   2.53312
    A1        1.71176  -0.00002  -0.01203  -0.03067  -0.04269   1.66907
    A2        1.76434   0.00002   0.01228   0.03277   0.04505   1.80939
    A3        1.61254   0.00000  -0.00004  -0.00012  -0.00016   1.61238
    A4        1.61272   0.00000   0.00005   0.00011   0.00015   1.61287
    D1        3.13993  -0.00000  -0.00083  -0.00209  -0.00292   3.13701
    D2       -1.72317   0.00000   0.00177   0.00545   0.00721  -1.71596
    D3        1.73124   0.00000   0.00204   0.00437   0.00641   1.73765
         Item               Value     Threshold  Converged?
 Maximum Force            0.000024     0.000450     YES
 RMS     Force            0.000009     0.000300     YES
 Maximum Displacement     0.064124     0.001800     NO 
 RMS     Displacement     0.041269     0.001200     NO 
 Predicted change in Energy=-3.950109D-06
 GradGradGradGradGradGradGradGradGradGradGradGradGradGradGradGradGradGrad

 Leave Link  103 at Fri Jan  3 11:19:04 2025, MaxMem=   104857600 cpu:               0.0 elap:               0.0
 (Enter /opt/g16/l202.exe)
                          Input orientation:                          
 ---------------------------------------------------------------------
 Center     Atomic      Atomic             Coordinates (Angstroms)
 Number     Number       Type             X           Y           Z
 ---------------------------------------------------------------------
      1          1           0        2.288273    1.100838    0.352329
      2          1           0        1.063502    0.246142   -0.875901
      3          1           0       -2.331739   -1.119704   -0.279469
      4          1           0       -0.979589   -0.218230    0.769657
      5         16           0        2.014501   -0.155822   -0.021477
      6         16           0       -2.052367    0.147052    0.053710
 ---------------------------------------------------------------------
                    Distance matrix (angstroms):
                    1          2          3          4          5
     1  H    0.000000
     2  H    1.933679   0.000000
     3  H    5.164734   3.707954   0.000000
     4  H    3.548665   2.664155   1.934329   0.000000
     5  S    1.339357   1.340155   4.459308   3.097476   0.000000
     6  S    4.454215   3.253096   1.339301   1.340471   4.078823
                    6
     6  S    0.000000
 Stoichiometry    H4S2
 Framework group  C1[X(H4S2)]
 Deg. of freedom    12
 Full point group                 C1      NOp   1
 RotChk:  IX=0 Diff= 1.55D-03
 Largest Abelian subgroup         C1      NOp   1
 Largest concise Abelian subgroup C1      NOp   1
                         Standard orientation:                         
 ---------------------------------------------------------------------
 Center     Atomic      Atomic             Coordinates (Angstroms)
 Number     Number       Type             X           Y           Z
 ---------------------------------------------------------------------
      1          1           0        2.263090   -1.229918   -0.093817
      2          1           0        1.087695   -0.069007    0.911095
      3          1           0       -2.275652    1.230696    0.046461
      4          1           0       -0.971007    0.062331   -0.774792
      5         16           0        2.034152    0.087913   -0.024645
      6         16           0       -2.040660   -0.087544    0.019086
 ---------------------------------------------------------------------
 Rotational constants (GHZ):         102.9007313           1.8077815           1.7951978
 Leave Link  202 at Fri Jan  3 11:19:04 2025, MaxMem=   104857600 cpu:               0.0 elap:               0.0
 (Enter /opt/g16/l301.exe)
 Standard basis: STO-3G (5D, 7F)
 Ernie: Thresh=  0.10000D-02 Tol=  0.10000D-05 Strict=F.
 There are    22 symmetry adapted cartesian basis functions of A   symmetry.
 There are    22 symmetry adapted basis functions of A   symmetry.
    22 basis functions,    66 primitive gaussians,    22 cartesian basis functions
    18 alpha electrons       18 beta electrons
       nuclear repulsion energy        68.7662409259 Hartrees.
 IExCor=    0 DFT=F Ex=HF Corr=None ExCW=0 ScaHFX=  1.000000
 ScaDFX=  1.000000  1.000000  1.000000  1.000000 ScalE2=  1.000000  1.000000
 IRadAn=      5 IRanWt=     -1 IRanGd=            0 ICorTp=0 IEmpDi=  4
 NAtoms=    6 NActive=    6 NUniq=    6 SFac= 1.00D+00 NAtFMM=   60 NAOKFM=F Big=F
 Integral buffers will be    131072 words long.
 Raffenetti 1 integral format.
 Two-electron integral symmetry is turned on.
 Leave Link  301 at Fri Jan  3 11:19:04 2025, MaxMem=   104857600 cpu:               0.0 elap:               0.0
 (Enter /opt/g16/l402.exe)
 External calculation of energy, first and second derivatives.
 Running external command "python3 -u ../pes/h4s2_pes.py R"
         input file       "/home/jhli/scratch/g16/Gau-112764.EIn"
         output file      "/home/jhli/scratch/g16/Gau-112764.EOu"
         message file     "/home/jhli/scratch/g16/Gau-112764.EMs"
         fchk file        "/home/jhli/scratch/g16/Gau-112764.EFC"
         mat. el file     "/home/jhli/scratch/g16/Gau-112764.EUF"
 initialization done
 Recovered energy= -797.920066947     dipole=      0.000000000000      0.000000000000      0.000000000000
 Energy=    -797.920067     NIter=   0.
 Dipole moment=       0.000000       0.000000       0.000000
 Leave Link  402 at Fri Jan  3 11:19:04 2025, MaxMem=   104857600 cpu:               0.0 elap:               0.2
 (Enter /opt/g16/l716.exe)
 Dipole        = 0.00000000D+00 0.00000000D+00 0.00000000D+00
 ***** Axes restored to original set *****
 -------------------------------------------------------------------
 Center     Atomic                   Forces (Hartrees/Bohr)
 Number     Number              X              Y              Z
 -------------------------------------------------------------------
      1        1          -0.000003135    0.000004018    0.000001142
      2        1           0.000018666    0.000002327   -0.000019547
      3        1          -0.000001522   -0.000004457    0.000004931
      4        1           0.000011465    0.000003127   -0.000012720
      5       16           0.000000136   -0.000000772    0.000012907
      6       16          -0.000025730   -0.000004327    0.000013517
 -------------------------------------------------------------------
 Cartesian Forces:  Max     0.000025730 RMS     0.000010912
 Force constants in Cartesian coordinates: 
                1             2             3             4             5 
      1  0.258156D-01
      2  0.486256D-01  0.242385D+00
      3  0.286208D-01  0.679644D-01  0.336219D-01
      4 -0.519458D-02  0.263631D-02 -0.462794D-02  0.139519D+00
      5 -0.181342D-01  0.463078D-02 -0.167145D-01 -0.511672D-01  0.476618D-01
      6 -0.650092D-02  0.283243D-02 -0.595782D-02  0.125445D+00 -0.438655D-01
      7  0.202570D-03  0.411576D-04 -0.454167D-04  0.311108D-04 -0.157165D-03
      8  0.461235D-04  0.156844D-03  0.356450D-04 -0.115318D-03 -0.791344D-04
      9 -0.346563D-04  0.353885D-04 -0.343750D-04 -0.112209D-03  0.216423D-03
     10  0.470624D-04 -0.124851D-03 -0.148020D-03 -0.393907D-03 -0.175710D-03
     11 -0.260936D-03 -0.108692D-03  0.269127D-03 -0.212607D-03  0.567319D-05
     12 -0.258537D-03  0.388411D-04  0.403968D-04  0.808624D-03  0.290740D-03
     13 -0.204506D-01 -0.511152D-01 -0.239176D-01 -0.133957D+00  0.692644D-01
     14 -0.305548D-01 -0.246933D+00 -0.513914D-01  0.486240D-01 -0.520636D-01
     15 -0.220484D-01 -0.708301D-01 -0.277521D-01 -0.121275D+00  0.604471D-01
     16 -0.419508D-03 -0.636896D-04  0.118843D-03 -0.425923D-05  0.368860D-03
     17  0.278419D-03 -0.132127D-03 -0.162471D-03  0.235956D-03 -0.155420D-03
     18  0.222687D-03 -0.419303D-04  0.829083D-04 -0.238350D-03 -0.375612D-03
                6             7             8             9            10 
      6  0.115048D+00
      7 -0.229096D-03  0.299749D-01
      8  0.401880D-04  0.502385D-01  0.246047D+00
      9  0.315630D-04  0.265219D-01  0.617209D-01  0.256709D-01
     10  0.738842D-03 -0.604417D-02  0.261882D-02 -0.399394D-02  0.176521D+00
     11  0.281915D-03 -0.206399D-01  0.403012D-02 -0.142169D-01 -0.521709D-01
     12 -0.602150D-03 -0.646886D-02  0.222119D-02 -0.442238D-02  0.118187D+00
     13 -0.119034D+00 -0.435087D-03 -0.754397D-04  0.791453D-04 -0.154871D-03
     14  0.409103D-01  0.263971D-03 -0.142499D-03 -0.133910D-03  0.249902D-03
     15 -0.108418D+00  0.250264D-03 -0.394532D-04  0.874466D-04 -0.186502D-03
     16 -0.419659D-03 -0.237287D-01 -0.527131D-01 -0.224599D-01 -0.169975D+00
     17 -0.198321D-03 -0.297463D-01 -0.250013D+00 -0.476212D-01  0.496039D-01
     18 -0.101623D-03 -0.200275D-01 -0.639797D-01 -0.213325D-01 -0.114597D+00
               11            12            13            14            15 
     11  0.441167D-01
     12 -0.322469D-01  0.813529D-01
     13  0.501478D-03 -0.370321D-03  0.156397D+00
     14 -0.236524D-03 -0.212633D-03 -0.182053D-01  0.298765D+00
     15 -0.441894D-03 -0.220278D-03  0.143080D+00  0.105596D-01  0.136138D+00
     16  0.727823D-01 -0.111899D+00 -0.140033D-02 -0.376102D-03  0.179470D-03
     17 -0.478071D-01  0.299097D-01 -0.371320D-03  0.611158D-03  0.303111D-03
     18  0.463529D-01 -0.761480D-01  0.162358D-03  0.270531D-03  0.162308D-03
               16            17            18 
     16  0.195527D+00
     17 -0.199998D-01  0.297496D+00
     18  0.134478D+00  0.177721D-01  0.973358D-01
 FormGI is forming the generalized inverse of G from B-inverse, IUseBI=4.
 Force constants in internal coordinates: 
                1             2             3             4             5 
      1  0.274585D+00
      2  0.178598D-03  0.195437D-02
      3 -0.976871D-03  0.105803D-02  0.274155D+00
      4 -0.177915D-03  0.181533D-03  0.279602D-04  0.274626D+00
      5  0.255189D-04  0.122265D-02  0.594351D-03 -0.961004D-03  0.273624D+00
      6  0.314327D-03  0.274095D-02  0.214190D-02  0.173946D-03  0.343874D-02
      7  0.119994D-03  0.195705D-02  0.261226D-02  0.274345D-03  0.154214D-02
      8  0.978273D-02  0.146528D-03  0.983601D-02 -0.136743D-04  0.763482D-04
      9 -0.175005D-04  0.225004D-03  0.106007D-03  0.975473D-02  0.973587D-02
     10 -0.170283D-03  0.115335D-04  0.124444D-03  0.163695D-03 -0.160472D-03
     11 -0.191735D-03  0.790624D-05 -0.183470D-03  0.129595D-03 -0.500979D-03
     12 -0.100270D-03  0.220419D-04  0.383813D-03  0.129352D-03  0.156633D-03
                6             7             8             9            10 
      6  0.809502D-02
      7  0.744715D-02  0.538981D-02
      8  0.653794D-03  0.990783D-03  0.172460D+00
      9  0.128807D-02  0.618121D-03 -0.344591D-03  0.171786D+00
     10  0.713820D-04 -0.120130D-03 -0.919068D-03  0.116997D-02  0.163764D-02
     11 -0.450179D-03 -0.846989D-03  0.123872D-02  0.842919D-03  0.126944D-02
     12  0.830034D-03  0.395180D-03 -0.635860D-03 -0.120242D-02  0.104558D-02
               11            12 
     11  0.192705D-02
     12  0.676887D-03  0.148244D-02
 Leave Link  716 at Fri Jan  3 11:19:04 2025, MaxMem=   104857600 cpu:               0.0 elap:               0.0
 (Enter /opt/g16/l103.exe)

 GradGradGradGradGradGradGradGradGradGradGradGradGradGradGradGradGradGrad
 Berny optimization.
 Using GDIIS optimizer.
 Red2BG is reusing G-inverse.
 Internal  Forces:  Max     0.000076443 RMS     0.000025202
 Search for a local minimum.
 Step number   5 out of a maximum of   22
 All quantities printed in internal units (Hartrees-Bohrs-Radians)
 Swapping is turned off.
 Second derivative matrix not updated -- analytic derivatives used.
 DE= -2.88D-06 DEPred=-3.95D-06 R= 7.30D-01
 TightC=F SS=  1.41D+00  RLast= 6.29D-02 DXNew= 2.5227D-01 1.8876D-01
 Trust test= 7.30D-01 RLast= 6.29D-02 DXMaxT set to 1.89D-01
 The second derivative matrix:
                          R1        R2        R3        R4        R5
           R1           0.27458
           R2           0.00018   0.00195
           R3          -0.00098   0.00106   0.27415
           R4          -0.00018   0.00018   0.00003   0.27463
           R5           0.00003   0.00122   0.00059  -0.00096   0.27362
           A1           0.00031   0.00274   0.00214   0.00017   0.00344
           A2           0.00012   0.00196   0.00261   0.00027   0.00154
           A3           0.00978   0.00015   0.00984  -0.00001   0.00008
           A4          -0.00002   0.00023   0.00011   0.00975   0.00974
           D1          -0.00017   0.00001   0.00012   0.00016  -0.00016
           D2          -0.00019   0.00001  -0.00018   0.00013  -0.00050
           D3          -0.00010   0.00002   0.00038   0.00013   0.00016
                          A1        A2        A3        A4        D1
           A1           0.00810
           A2           0.00745   0.00539
           A3           0.00065   0.00099   0.17246
           A4           0.00129   0.00062  -0.00034   0.17179
           D1           0.00007  -0.00012  -0.00092   0.00117   0.00164
           D2          -0.00045  -0.00085   0.00124   0.00084   0.00127
           D3           0.00083   0.00040  -0.00064  -0.00120   0.00105
                          D2        D3
           D2           0.00193
           D3           0.00068   0.00148
 ITU=  1  0  0 -1  0
     Eigenvalues ---   -0.00092   0.00034   0.00067   0.00133   0.00375
     Eigenvalues ---    0.01515   0.16983   0.17076   0.27417   0.27535
     Eigenvalues ---    0.27559   0.27572
 Eigenvalue     1 is  -9.20D-04 should be greater than     0.000000 Eigenvector:
                          A2        A1        D2        R2        D3
   1                    0.73847  -0.64720   0.11626   0.11288   0.08760
                          D1        R5        A3        R3        A4
   1                   -0.04277   0.00352  -0.00250  -0.00235   0.00220
 Cut down GDIIS temporarily because of the coefficient check. E 4
 DIIS coeff's:      1.61100     -0.61100
 Cosine:  0.998 >  0.500
 Length:  1.841
 GDIIS step was calculated using  2 of the last  3 vectors.
 Iteration  1 RMS(Cart)=  0.09675651 RMS(Int)=  0.00557123
 Iteration  2 RMS(Cart)=  0.00735820 RMS(Int)=  0.00000869
 Iteration  3 RMS(Cart)=  0.00001349 RMS(Int)=  0.00000000
 Iteration  4 RMS(Cart)=  0.00000000 RMS(Int)=  0.00000000
 ITry= 1 IFail=0 DXMaxC= 1.57D-01 DCOld= 1.00D+10 DXMaxT= 1.89D-01 DXLimC= 3.00D+00 Rises=F
[...]
      2          1           0        1.809770    0.463842   -1.218679
      3          1           0       -2.520155   -1.222731    0.211916
      4          1           0       -0.945126   -0.096717    0.195289
      5         16           0        1.874331   -0.186630   -0.049470
      6         16           0       -2.273243    0.093298    0.223216
 ---------------------------------------------------------------------
                    Distance matrix (angstroms):
                    1          2          3          4          5
     1  H    0.000000
     2  H    1.933568   0.000000
     3  H    5.084100   4.862035   0.000000
     4  H    3.209594   3.146901   1.936208   0.000000
     5  S    1.339469   1.339527   4.522536   2.831488   0.000000
     6  S    4.433339   4.345959   1.339039   1.341932   4.165944
                    6
     6  S    0.000000
 Stoichiometry    H4S2
 Framework group  C1[X(H4S2)]
 Deg. of freedom    12
 Full point group                 C1      NOp   1
 RotChk:  IX=0 Diff= 3.36D-15
 Largest Abelian subgroup         C1      NOp   1
 Largest concise Abelian subgroup C1      NOp   1
                         Standard orientation:                         
 ---------------------------------------------------------------------
 Center     Atomic      Atomic             Coordinates (Angstroms)
 Number     Number       Type             X           Y           Z
 ---------------------------------------------------------------------
      1          1           0        2.155177   -1.090408   -0.635036
      2          1           0        2.051546   -0.452728    1.187411
      3          1           0       -2.331615    1.233211   -0.071513
      4          1           0       -0.784322    0.069260   -0.072893
      5         16           0        2.046699    0.100886   -0.032351
      6         16           0       -2.114873   -0.085844    0.006853
 ---------------------------------------------------------------------
 Rotational constants (GHZ):          96.5170035           1.7193445           1.7105687
 Leave Link  202 at Fri Jan  3 11:19:07 2025, MaxMem=   104857600 cpu:               0.0 elap:               0.0
 (Enter /opt/g16/l601.exe)
 Leave Link  601 at Fri Jan  3 11:19:07 2025, MaxMem=   104857600 cpu:               0.0 elap:               0.0
 (Enter /opt/g16/l716.exe)
 Rotating derivatives to standard orientation.
 Dipole        = 0.00000000D+00 0.00000000D+00 0.00000000D+00
 Full mass-weighted force constant matrix:
 Low frequencies ---  -19.2769   -0.2726   -0.1176    0.1526    3.1874    3.2013
 Low frequencies ---   37.1573   58.5942   67.6603
 Diagonal vibrational polarizability:
        0.0000000       0.0000000       0.0000000
 Harmonic frequencies (cm**-1), IR intensities (KM/Mole), Raman scattering
 activities (A**4/AMU), depolarization ratios for plane and unpolarized
 incident light, reduced masses (AMU), force constants (mDyne/A),
 and normal coordinates:
                      1                      2                      3
                      A                      A                      A
 Frequencies --     33.5213                58.5896                67.6044
 Red. masses --      1.0291                 2.4213                 1.0545
 Frc consts  --      0.0007                 0.0049                 0.0028
 IR Inten    --      0.0000                 0.0000                 0.0000
  Atom  AN      X      Y      Z        X      Y      Z        X      Y      Z
     1   1     0.05  -0.18   0.35    -0.55  -0.02  -0.05     0.64   0.09  -0.06
     2   1    -0.24   0.34   0.14    -0.58  -0.08  -0.03    -0.48  -0.11  -0.05
     3   1     0.02   0.05   0.79    -0.27  -0.08  -0.12     0.28   0.04  -0.14
     4   1    -0.01   0.02  -0.15     0.11   0.42  -0.13     0.02  -0.29  -0.38
     5  16     0.00  -0.00  -0.02    -0.13  -0.00   0.00    -0.03   0.00  -0.00
     6  16     0.00  -0.00  -0.02     0.17  -0.00   0.01     0.01   0.01   0.02
                      4                      5                      6
                      A                      A                      A
 Frequencies --     76.0965               151.2412               260.1758
 Red. masses --      1.5091                 1.0670                 1.0203
 Frc consts  --      0.0051                 0.0144                 0.0407
 IR Inten    --      0.0000                 0.0000                 0.0000
  Atom  AN      X      Y      Z        X      Y      Z        X      Y      Z
     1   1     0.10  -0.01   0.05     0.63   0.03   0.03     0.27  -0.00   0.03
     2   1     0.62   0.10   0.04     0.38   0.03   0.02    -0.41   0.01  -0.01
     3   1     0.51   0.09   0.13    -0.48  -0.07   0.04    -0.02  -0.00  -0.01
     4   1     0.13  -0.41   0.32    -0.04   0.47  -0.06     0.04   0.08   0.86
     5  16    -0.11  -0.00  -0.00    -0.03  -0.02   0.00     0.00  -0.00  -0.01
     6  16     0.06   0.01  -0.02     0.02   0.00  -0.00    -0.00  -0.00  -0.01
                      7                      8                      9
                      A                      A                      A
 Frequencies --   1209.8854              1216.0225              2693.6758
 Red. masses --      1.0396                 1.0388                 1.0367
 Frc consts  --      0.8966                 0.9050                 4.4321
 IR Inten    --      0.0000                 0.0000                 0.0000
  Atom  AN      X      Y      Z        X      Y      Z        X      Y      Z
     1   1    -0.01   0.32  -0.63     0.01  -0.02   0.04     0.01  -0.06  -0.03
     2   1    -0.06   0.64   0.29     0.01  -0.04  -0.02     0.00  -0.02   0.06
     3   1     0.04   0.01  -0.00     0.68   0.11  -0.04    -0.06   0.24  -0.01
     4   1    -0.00   0.04  -0.00    -0.09   0.71  -0.04     0.96   0.10  -0.06
     5  16     0.00  -0.03   0.01    -0.00   0.00  -0.00    -0.00   0.00  -0.00
     6  16    -0.00  -0.00   0.00    -0.02  -0.03   0.00    -0.03  -0.01   0.00
                     10                     11                     12
                      A                      A                      A
 Frequencies --   2715.9435              2727.5186              2732.3526
 Red. masses --      1.0356                 1.0387                 1.0398
 Frc consts  --      4.5006                 4.5528                 4.5739
 IR Inten    --      0.0000                 0.0000                 0.0000
  Atom  AN      X      Y      Z        X      Y      Z        X      Y      Z
     1   1     0.06  -0.61  -0.33     0.00  -0.01  -0.00    -0.06   0.63   0.32
     2   1     0.00  -0.27   0.65    -0.00   0.01  -0.01     0.00  -0.29   0.64
     3   1     0.00  -0.02   0.00    -0.17   0.95  -0.06    -0.00   0.01  -0.00
     4   1    -0.09  -0.01   0.00    -0.24  -0.04   0.02    -0.00  -0.00  -0.00
     5  16    -0.00   0.03  -0.01     0.00   0.00   0.00     0.00  -0.01  -0.03
     6  16     0.00   0.00  -0.00     0.01  -0.03   0.00     0.00  -0.00   0.00

 -------------------
 - Thermochemistry -
 -------------------
 Temperature   298.150 Kelvin.  Pressure   1.00000 Atm.
 Atom     1 has atomic number  1 and mass   1.00783
 Atom     2 has atomic number  1 and mass   1.00783
 Atom     3 has atomic number  1 and mass   1.00783
 Atom     4 has atomic number  1 and mass   1.00783
 Atom     5 has atomic number 16 and mass  31.97207
 Atom     6 has atomic number 16 and mass  31.97207
 Molecular mass:    67.97544 amu.
 Principal axes and moments of inertia in atomic units:
                           1         2         3
     Eigenvalues --    18.698691049.668161055.05332
           X            0.99976  -0.02141   0.00398
           Y            0.02132   0.99954   0.02146
           Z           -0.00443  -0.02137   0.99976
 This molecule is an asymmetric top.
 Rotational symmetry number  1.
 Rotational temperatures (Kelvin)      4.63209     0.08252     0.08209
 Rotational constants (GHZ):          96.51700     1.71934     1.71057
 Zero-point vibrational energy      83395.4 (Joules/Mol)
                                   19.93199 (Kcal/Mol)
 Warning -- explicit consideration of   6 degrees of freedom as
           vibrations may cause significant error
 Vibrational temperatures:     48.23    84.30    97.27   109.49   217.60
          (Kelvin)            374.33  1740.76  1749.59  3875.60  3907.64
                             3924.29  3931.25
 
 Zero-point correction=                           0.031764 (Hartree/Particle)
 Thermal correction to Energy=                    0.039008
 Thermal correction to Enthalpy=                  0.039953
 Thermal correction to Gibbs Free Energy=        -0.000827
 Sum of electronic and zero-point Energies=           -797.888478
 Sum of electronic and thermal Energies=              -797.881233
 Sum of electronic and thermal Enthalpies=            -797.880289
 Sum of electronic and thermal Free Energies=         -797.921069
 
                     E (Thermal)             CV                S
                      KCal/Mol        Cal/Mol-Kelvin    Cal/Mol-Kelvin
 Total                   24.478             17.896             85.829
 Electronic               0.000              0.000              0.000
 Translational            0.889              2.981             38.567
 Rotational               0.889              2.981             24.541
 Vibrational             22.701             11.934             22.720
 Vibration     1          0.594              1.983              5.609
 Vibration     2          0.596              1.974              4.504
 Vibration     3          0.598              1.970              4.222
 Vibration     4          0.599              1.965              3.989
 Vibration     5          0.619              1.901              2.657
 Vibration     6          0.668              1.746              1.661
                       Q            Log10(Q)             Ln(Q)
 Total Bot       0.240194D+01          0.380563          0.876278
 Total V=0       0.979064D+15         14.990811         34.517618
 Vib (Bot)       0.211673D-11        -11.674334        -26.881146
 Vib (Bot)    1  0.617515D+01          0.790647          1.820533
 Vib (Bot)    2  0.352513D+01          0.547176          1.259918
 Vib (Bot)    3  0.305170D+01          0.484542          1.115699
 Vib (Bot)    4  0.270794D+01          0.432639          0.996188
 Vib (Bot)    5  0.134022D+01          0.127175          0.292831
 Vib (Bot)    6  0.746475D+00         -0.126985         -0.292394
 Vib (V=0)       0.862809D+03          2.935915          6.760193
 Vib (V=0)    1  0.669536D+01          0.825774          1.901414
 Vib (V=0)    2  0.406042D+01          0.608571          1.401286
 Vib (V=0)    3  0.359239D+01          0.555384          1.278818
 Vib (V=0)    4  0.325371D+01          0.512379          1.179797
 Vib (V=0)    5  0.193045D+01          0.285658          0.657752
 Vib (V=0)    6  0.139846D+01          0.145649          0.335369
 Electronic      0.100000D+01          0.000000          0.000000
 Translational   0.220283D+08          7.342982         16.907841
 Rotational      0.515127D+05          4.711914         10.849584
 ***** Axes restored to original set *****
 -------------------------------------------------------------------
 Center     Atomic                   Forces (Hartrees/Bohr)
 Number     Number              X              Y              Z
 -------------------------------------------------------------------
      1        1          -0.000002675    0.000009073   -0.000005371
      2        1           0.000001419   -0.000009188   -0.000000477
      3        1           0.000001647   -0.000002158    0.000007671
      4        1          -0.000000059   -0.000000116   -0.000001101
      5       16           0.000000548    0.000002541    0.000005286
      6       16          -0.000000535   -0.000001324   -0.000005617
 -------------------------------------------------------------------
 Cartesian Forces:  Max     0.000009188 RMS     0.000004351
 Force constants in Cartesian coordinates: 
                1             2             3             4             5 
      1  0.583614D-02
      2  0.311780D-01  0.201345D+00
      3  0.206094D-01  0.108906D+00  0.950446D-01
      4 -0.323897D-03  0.167834D-02 -0.354455D-02  0.184895D-02
      5 -0.136715D-02  0.797590D-02 -0.205178D-01 -0.319607D-02  0.819520D-01
      6 -0.776880D-03  0.781783D-02 -0.142910D-01  0.136278D-01 -0.103066D+00
      7  0.196300D-03  0.385584D-04  0.145842D-04  0.105174D-03  0.126932D-05
      8  0.427726D-04  0.711312D-04  0.195446D-04  0.891889D-05  0.366625D-04
      9  0.581260D-05  0.560660D-05 -0.120864D-04 -0.356740D-04  0.356276D-04
     10  0.533960D-04 -0.188561D-03 -0.280003D-03  0.167142D-03 -0.227340D-04
     11 -0.645735D-03 -0.110139D-03  0.797973D-04 -0.347649D-03 -0.636282D-04
     12 -0.559988D-03 -0.233452D-04  0.626303D-04  0.849115D-03  0.112805D-03
     13 -0.546888D-02 -0.327494D-01 -0.168769D-01 -0.161173D-02  0.455138D-02
     14 -0.295225D-01 -0.209235D+00 -0.884411D-01  0.166817D-02 -0.898557D-01
     15 -0.195230D-01 -0.116711D+00 -0.807850D-01 -0.105511D-01  0.123525D+00
     16 -0.294144D-03  0.436211D-04  0.773305D-04 -0.186795D-03  0.338810D-04
     17  0.314037D-03 -0.489785D-04 -0.460797D-04  0.188131D-03 -0.460845D-04
     18  0.244722D-03  0.592548D-05 -0.191217D-04 -0.345425D-03 -0.891223D-04
                6             7             8             9            10 
      6  0.218533D+00
      7 -0.648274D-04  0.363223D-01
      8 -0.453955D-04  0.485599D-01  0.264928D+00
      9  0.192449D-04 -0.944131D-04  0.228944D-02  0.849321D-04
     10  0.300019D-03 -0.709733D-02  0.191193D-02  0.149248D-03  0.264856D+00
     11  0.767473D-04 -0.266705D-01  0.854155D-03  0.506370D-03 -0.305402D-01
     12 -0.196709D-03 -0.195419D-03 -0.305972D-04 -0.113299D-04 -0.531974D-02
     13 -0.130181D-01 -0.525253D-03 -0.926262D-04  0.507270D-04 -0.481878D-03
     14  0.952169D-01  0.280793D-03 -0.968835D-04 -0.484272D-04  0.292842D-03
     15 -0.204107D+00  0.732595D-04  0.320501D-04  0.102746D-04 -0.768134D-04
     16 -0.679986D-04 -0.290010D-01 -0.504300D-01 -0.758179D-04 -0.257498D+00
     17  0.195918D-05 -0.222090D-01 -0.265794D+00 -0.278824D-02  0.285483D-01
     18  0.439912D-04  0.267355D-03 -0.226547D-02 -0.922094D-04  0.522761D-02
               11            12            13            14            15 
     11  0.327139D-01
     12  0.999276D-03  0.207489D-02
     13  0.104720D-02 -0.289585D-03  0.978396D-02
     14 -0.612825D-03 -0.122874D-03  0.276376D-01  0.299188D+00
     15 -0.182346D-03 -0.822334D-03  0.299027D-01 -0.670506D-02  0.285294D+00
     16  0.571581D-01  0.551546D-02 -0.169284D-02 -0.358049D-03  0.174989D-03
     17 -0.327813D-01 -0.935061D-03 -0.393469D-03  0.615318D-03  0.397327D-04
     18 -0.148044D-02 -0.110839D-02  0.230817D-03  0.997851D-04  0.409879D-03
               16            17            18 
     16  0.288672D+00
     17 -0.645007D-02  0.298055D+00
     18 -0.562472D-02  0.372873D-02  0.768212D-03
 Red2BG is reusing G-inverse.
 Force constants in internal coordinates: 
                1             2             3             4             5 
      1  0.274506D+00
      2  0.167232D-03  0.222486D-02
      3 -0.119276D-02  0.309282D-04  0.274666D+00
      4 -0.880283D-04  0.636981D-04 -0.368125D-04  0.274773D+00
      5 -0.944965D-04  0.218243D-02 -0.204176D-03 -0.105311D-02  0.270946D+00
      6  0.440662D-03  0.558786D-02  0.117652D-02  0.278798D-03  0.584781D-02
      7  0.312860D-04 -0.214678D-03  0.856520D-03  0.114275D-03 -0.221107D-04
      8  0.969589D-02  0.222593D-03  0.988615D-02  0.444137D-04 -0.827487D-04
      9 -0.123149D-03  0.354002D-03  0.258561D-03  0.967560D-02  0.954068D-02
     10 -0.727556D-04  0.121507D-03 -0.110583D-03  0.906997D-04 -0.385525D-04
     11 -0.495517D-03  0.195889D-03 -0.410472D-03  0.165262D-03 -0.422251D-03
     12 -0.305755D-04  0.175309D-04  0.472081D-04  0.114630D-04  0.216084D-04
                6             7             8             9            10 
      6  0.219585D-01
      7  0.293330D-02  0.296480D-02
      8  0.118088D-02 -0.533857D-04  0.173776D+00
      9  0.208293D-02  0.158668D-02 -0.354332D-04  0.169696D+00
     10 -0.202559D-03 -0.406781D-03  0.571958D-04  0.112515D-02  0.842018D-03
     11 -0.730716D-03 -0.733790D-03  0.788165D-03  0.116903D-02  0.806902D-03
     12  0.349302D-03 -0.532499D-04 -0.503411D-04 -0.734005D-04  0.196858D-03
               11            12 
     11  0.387477D-02
     12 -0.760939D-04  0.244400D-03
 Leave Link  716 at Fri Jan  3 11:19:07 2025, MaxMem=   104857600 cpu:               0.0 elap:               0.0
 (Enter /opt/g16/l9999.exe)
 Unable to Open any file for archive entry.
 1\1\GINC-GPUNODE01\Freq\External='python3 -u ../pes/h4s2_pes.py'\ZDO\H
 4S2\JHLI\03-Jan-2025\0\\#p external="python3 -u ../pes/h4s2_pes.py" op
 t=(nomicro,calcall,gdiis)\\min-4\\0,1\H,2.0570035596,0.9492161604,0.63
 65767555\H,1.8097704941,0.4638416798,-1.2186788244\H,-2.5201547464,-1.
 2227312173,0.2119156495\H,-0.9451256473,-0.0967173454,0.1952893557\S,1
 .8743308278,-0.1866304345,-0.0494699202\S,-2.2732430178,0.0932976669,0
 .2232162639\\Version=ES64L-G16RevC.01\HF=-797.9202418\RMSD=0.000e+00\R
 MSF=4.351e-06\ZeroPoint=0.0317636\Thermal=0.0390084\ETot=-797.8812333\
 HTot=-797.8802891\GTot=-797.9210691\Dipole=0.,0.,0.\PG=C01 [X(H4S2)]\N
 Imag=0\\0.00583614,0.03117797,0.20134492,0.02060945,0.10890559,0.09504
 462,-0.00032390,0.00167834,-0.00354455,0.00184895,-0.00136715,0.007975
 90,-0.02051784,-0.00319607,0.08195196,-0.00077688,0.00781783,-0.014291
 02,0.01362778,-0.10306587,0.21853252,0.00019630,0.00003856,0.00001458,
 0.00010517,0.00000127,-0.00006483,0.03632232,0.00004277,0.00007113,0.0
 0001954,0.00000892,0.00003666,-0.00004540,0.04855993,0.26492780,0.0000
 0581,0.00000561,-0.00001209,-0.00003567,0.00003563,0.00001924,-0.00009
 441,0.00228944,0.00008493,0.00005340,-0.00018856,-0.00028000,0.0001671
 4,-0.00002273,0.00030002,-0.00709733,0.00191193,0.00014925,0.26485635,
 -0.00064574,-0.00011014,0.00007980,-0.00034765,-0.00006363,0.00007675,
 -0.02667052,0.00085416,0.00050637,-0.03054017,0.03271389,-0.00055999,-
 0.00002335,0.00006263,0.00084912,0.00011281,-0.00019671,-0.00019542,-0
 .00003060,-0.00001133,-0.00531974,0.00099928,0.00207489,-0.00546888,-0
 .03274935,-0.01687685,-0.00161173,0.00455138,-0.01301807,-0.00052525,-
 0.00009263,0.00005073,-0.00048188,0.00104720,-0.00028958,0.00978396,-0
 .02952249,-0.20923471,-0.08844106,0.00166817,-0.08985571,0.09521693,0.
 00028079,-0.00009688,-0.00004843,0.00029284,-0.00061283,-0.00012287,0.
 02763756,0.29918763,-0.01952303,-0.11671123,-0.08078500,-0.01055112,0.
 12352473,-0.20410718,0.00007326,0.00003205,0.00001027,-0.00007681,-0.0
 0018235,-0.00082233,0.02990265,-0.00670506,0.28529354,-0.00029414,0.00
 004362,0.00007733,-0.00018680,0.00003388,-0.00006800,-0.02900099,-0.05
 043003,-0.00007582,-0.25749831,0.05715808,0.00551546,-0.00169284,-0.00
 035805,0.00017499,0.28867235,0.00031404,-0.00004898,-0.00004608,0.0001
 8813,-0.00004608,0.00000196,-0.02220898,-0.26579351,-0.00278824,0.0285
 4827,-0.03278133,-0.00093506,-0.00039347,0.00061532,0.00003973,-0.0064
 5007,0.29805508,0.00024472,0.00000593,-0.00001912,-0.00034542,-0.00008
 912,0.00004399,0.00026736,-0.00226547,-0.00009221,0.00522761,-0.001480
 44,-0.00110839,0.00023082,0.00009979,0.00040988,-0.00562472,0.00372873
 ,0.00076821\\0.00000267,-0.00000907,0.00000537,-0.00000142,0.00000919,
 0.00000048,-0.00000165,0.00000216,-0.00000767,0.00000006,0.00000012,0.
 00000110,-0.00000055,-0.00000254,-0.00000529,0.00000053,0.00000132,0.0
 0000562\\\@
 The archive entry for this job was punched.


 YOU CAN LEAD A BOY TO COLLEGE....
 BUT YOU CANNOT MAKE HIM THINK....
           ELBERT HUBBARD
 Job cpu time:       0 days  0 hours  0 minutes  1.0 seconds.
 Elapsed time:       0 days  0 hours  0 minutes  3.6 seconds.
 File lengths (MBytes):  RWF=      6 Int=      0 D2E=      0 Chk=      1 Scr=      1
 Normal termination of Gaussian 16 at Fri Jan  3 11:19:07 2025.
