 Entering Gaussian System, Link 0=g16
 Initial command:
 /opt/g16/l1.exe "/home/jhli/scratch/g16/Gau-115203.inp" -scrdir="/home/jhli/scratch/g16/"
 Entering Link 1 = /opt/g16/l1.exe PID=    115214.
  
 Copyright (c) 1988-2019, Gaussian, Inc.  All Rights Reserved.
  
 This is part of the Gaussian(R) 16 program.  It is based on
 the Gaussian(R) 09 system (copyright 2009, Gaussian, Inc.),
 the Gaussian(R) 03 system (copyright 2003, Gaussian, Inc.),
 the Gaussian(R) 98 system (copyright 1998, Gaussian, Inc.),
 the Gaussian(R) 94 system (copyright 1995, Gaussian, Inc.),
 the Gaussian 92(TM) system (copyright 1992, Gaussian, Inc.),
 the Gaussian 90(TM) system (copyright 1990, Gaussian, Inc.),
 the Gaussian 88(TM) system (copyright 1988, Gaussian, Inc.),
 the Gaussian 86(TM) system (copyright 1986, Carnegie Mellon
 University), and the Gaussian 82(TM) system (copyright 1983,
 Carnegie Mellon University). Gaussian is a federally registered
 trademark of Gaussian, Inc.
  
 This software contains proprietary and confidential information,
 including trade secrets, belonging to Gaussian, Inc.
  
 This software is provided under written license and may be
 used, copied, transmitted, or stored only in accord with that
 written license.
  
 The following legend is applicable only to US Government
 contracts under FAR:
  
                    RESTRICTED RIGHTS LEGEND
  
 Use, reproduction and disclosure by the US Government is
 subject to restrictions as set forth in subparagraphs (a)
 and (c) of the Commercial Computer Software - Restricted
 Rights clause in FAR 52.227-19.
  
 Gaussian, Inc.
 340 Quinnipiac St., Bldg. 40, Wallingford CT 06492
  
  
 ---------------------------------------------------------------
 Warning -- This program may not be used in any manner that
 competes with the business of Gaussian, Inc. or will provide
 assistance to any competitor of Gaussian, Inc.  The licensee
 of this program is prohibited from giving any competitor of
 Gaussian, Inc. access to this program.  By using this program,
 the user acknowledges that Gaussian, Inc. is engaged in the
 business of creating and licensing software in the field of
 computational chemistry and represents and warrants to the
 licensee that it is not a competitor of Gaussian, Inc. and that
 it will not use this program in any manner prohibited above.
 ---------------------------------------------------------------
  

 Cite this work as:
 Gaussian 16, Revision C.01,
 M. J. Frisch, G. W. Trucks, H. B. Schlegel, G. E. Scuseria, 
 M. A. Robb, J. R. Cheeseman, G. Scalmani, V. Barone, 
 G. A. Petersson, H. Nakatsuji, X. Li, M. Caricato, A. V. Marenich, 
 J. Bloino, B. G. Janesko, R. Gomperts, B. Mennucci, H. P. Hratchian, 
 J. V. Ortiz, A. F. Izmaylov, J. L. Sonnenberg, D. Williams-Young, 
 F. Ding, F. Lipparini, F. Egidi, J. Goings, B. Peng, A. Petrone, 
 T. Henderson, D. Ranasinghe, V. G. Zakrzewski, J. Gao, N. Rega, 
 G. Zheng, W. Liang, M. Hada, M. Ehara, K. Toyota, R. Fukuda, 
 J. Hasegawa, M. Ishida, T. Nakajima, Y. Honda, O. Kitao, H. Nakai, 
 T. Vreven, K. Throssell, J. A. Montgomery, Jr., J. E. Peralta, 
 F. Ogliaro, M. J. Bearpark, J. J. Heyd, E. N. Brothers, K. N. Kudin, 
 V. N. Staroverov, T. A. Keith, R. Kobayashi, J. Normand, 
 K. Raghavachari, A. P. Rendell, J. C. Burant, S. S. Iyengar, 
 J. Tomasi, M. Cossi, J. M. Millam, M. Klene, C. Adamo, R. Cammi, 
 J. W. Ochterski, R. L. Martin, K. Morokuma, O. Farkas, 
 J. B. Foresman, and D. J. Fox, Gaussian, Inc., Wallingford CT, 2019.
 
 ******************************************
 Gaussian 16:  ES64L-G16RevC.01  3-Jul-2019
                 3-Jan-2025 
 ******************************************
 %nproc=1
 Will use up to    1 processors via shared memory.
 %chk=ts-1-opt-freq.chk
 ----------------------------------------------------------------------
 #p external="python3 -u ../pes/h4s2_pes.py" opt=(nomicro,calcall,ts,no
 eigen)
 ----------------------------------------------------------------------
 1/5=1,10=4,11=1,18=20,26=1,38=1/1,3;
 2/9=110,12=2,17=6,18=5,40=1/2;
 3/11=9,25=1,30=1,41=9900000,43=2,71=2,140=1/1;
 4/20=17,22=2,24=3,113=1,114=1/2;
 6/7=2,8=2,9=2,10=2,18=1/1;
 7/25=1,44=-1/16;
 1/5=1,10=4,11=1,18=20,26=1/3(3);
 2/9=110/2;
 7/8=1,9=1,25=1,44=-1/16;
 99//99;
 2/9=110/2;
 3/11=9,25=1,30=1,41=9900000,43=2,71=2,140=1/1;
 4/16=2,20=17,22=2,24=3,113=1,114=1/2;
 7/25=1,44=-1/16;
 1/5=1,10=4,11=1,18=20,26=1/3(-4);
 2/9=110/2;
 6/7=2,8=2,9=2,10=2,18=1/1;
 7/8=1,9=1,25=1,44=-1/16;
 99//99;
 Leave Link    1 at Fri Jan  3 11:24:24 2025, MaxMem=           0 cpu:               0.0 elap:               0.0
 (Enter /opt/g16/l101.exe)
 ----
 ts-1
 ----
 Symbolic Z-matrix:
 Charge =  0 Multiplicity = 1
 H                    -0.92638   2.89344   0. 
 H                    -0.85307   0.95081   0. 
 H                     0.77904  -1.49955   0.96607 
 H                     0.77904  -1.49955  -0.96607 
 S                     0.03077   1.95708   0. 
 S                    -0.02207  -1.96804   0. 
 
 Add virtual bond connecting atoms H3         and H2         Dist= 5.86D+00.
 Add virtual bond connecting atoms H4         and H2         Dist= 5.86D+00.
 Add virtual bond connecting atoms S6         and H2         Dist= 5.74D+00.
 Add atom      6 valence  3 ND=      0 dihedral       4      3      6      2
 ITRead=  0  0  0  0  0  0
 MicOpt= -1 -1 -1 -1 -1 -1
 NAtoms=      6 NQM=        6 NQMF=       0 NMMI=      0 NMMIF=      0
                NMic=       0 NMicF=      0.
                    Isotopes and Nuclear Properties:
 (Nuclear quadrupole moments (NQMom) in fm**2, nuclear magnetic moments (NMagM)
  in nuclear magnetons)

  Atom         1           2           3           4           5           6
 IAtWgt=           1           1           1           1          32          32
 AtmWgt=   1.0078250   1.0078250   1.0078250   1.0078250  31.9720718  31.9720718
 NucSpn=           1           1           1           1           0           0
 AtZEff=  -0.0000000  -0.0000000  -0.0000000  -0.0000000  -0.0000000  -0.0000000
 NQMom=    0.0000000   0.0000000   0.0000000   0.0000000   0.0000000   0.0000000
 NMagM=    2.7928460   2.7928460   2.7928460   2.7928460   0.0000000   0.0000000
 AtZNuc=   1.0000000   1.0000000   1.0000000   1.0000000  16.0000000  16.0000000
 Leave Link  101 at Fri Jan  3 11:24:24 2025, MaxMem=   104857600 cpu:               0.1 elap:               0.1
 (Enter /opt/g16/l103.exe)

 GradGradGradGradGradGradGradGradGradGradGradGradGradGradGradGradGradGrad
 Berny optimization.
 Initialization pass.
                           ----------------------------
                           !    Initial Parameters    !
                           ! (Angstroms and Degrees)  !
 --------------------------                            --------------------------
 ! Name  Definition              Value          Derivative Info.                !
 --------------------------------------------------------------------------------
 ! R1    R(1,5)                  1.339          calculate D2E/DX2 analytically  !
 ! R2    R(2,3)                  3.0986         calculate D2E/DX2 analytically  !
 ! R3    R(2,4)                  3.0986         calculate D2E/DX2 analytically  !
 ! R4    R(2,5)                  1.3393         calculate D2E/DX2 analytically  !
 ! R5    R(2,6)                  3.0348         calculate D2E/DX2 analytically  !
 ! R6    R(3,6)                  1.3396         calculate D2E/DX2 analytically  !
 ! R7    R(4,6)                  1.3396         calculate D2E/DX2 analytically  !
 ! A1    A(3,2,4)               36.3325         calculate D2E/DX2 analytically  !
 ! A2    A(3,2,5)              104.2737         calculate D2E/DX2 analytically  !
 ! A3    A(4,2,5)              104.2737         calculate D2E/DX2 analytically  !
 ! A4    A(5,2,6)              122.8143         calculate D2E/DX2 analytically  !
 ! A5    A(1,5,2)               93.077          calculate D2E/DX2 analytically  !
 ! A6    A(3,6,4)               92.3005         calculate D2E/DX2 analytically  !
 ! D1    D(3,2,5,1)           -161.2338         calculate D2E/DX2 analytically  !
 ! D2    D(4,2,5,1)            161.2338         calculate D2E/DX2 analytically  !
 ! D3    D(6,2,5,1)            180.0            calculate D2E/DX2 analytically  !
 ! D4    D(4,3,6,2)            -79.4895         calculate D2E/DX2 analytically  !
 --------------------------------------------------------------------------------
 Trust Radius=3.00D-01 FncErr=1.00D-07 GrdErr=1.00D-07 EigMax=2.50D+02 EigMin=1.00D-04
 Number of steps in this run=     27 maximum allowed number of steps=    100.
 Search for a saddle point of order  1.
 GradGradGradGradGradGradGradGradGradGradGradGradGradGradGradGradGradGrad

 Leave Link  103 at Fri Jan  3 11:24:24 2025, MaxMem=   104857600 cpu:               0.0 elap:               0.0
 (Enter /opt/g16/l202.exe)
                          Input orientation:                          
 ---------------------------------------------------------------------
 Center     Atomic      Atomic             Coordinates (Angstroms)
 Number     Number       Type             X           Y           Z
 ---------------------------------------------------------------------
      1          1           0       -0.926383    2.893443    0.000000
      2          1           0       -0.853067    0.950814    0.000000
      3          1           0        0.779042   -1.499549    0.966069
      4          1           0        0.779042   -1.499549   -0.966069
      5         16           0        0.030770    1.957079    0.000000
      6         16           0       -0.022066   -1.968036    0.000000
 ---------------------------------------------------------------------
                    Distance matrix (angstroms):
                    1          2          3          4          5
     1  H    0.000000
     2  H    1.944011   0.000000
     3  H    4.810420   3.098605   0.000000
     4  H    4.810420   3.098605   1.932137   0.000000
     5  S    1.338999   1.339305   3.666263   3.666263   0.000000
     6  S    4.944872   3.034839   1.339606   1.339606   3.925470
                    6
     6  S    0.000000
 Stoichiometry    H4S2
 Framework group  CS[SG(H2S2),X(H2)]
 Deg. of freedom     8
 Full point group                 CS      NOp   2
 Largest Abelian subgroup         CS      NOp   2
 Largest concise Abelian subgroup CS      NOp   2
                         Standard orientation:                         
 ---------------------------------------------------------------------
 Center     Atomic      Atomic             Coordinates (Angstroms)
 Number     Number       Type             X           Y           Z
 ---------------------------------------------------------------------
      1          1           0       -0.962713    2.862137    0.000000
      2          1           0       -0.863257    0.920671    0.000000
      3          1           0        0.801686   -1.507503    0.966069
      4          1           0        0.801686   -1.507503   -0.966069
      5         16           0        0.006956    1.938741    0.000000
      6         16           0        0.006956   -1.986729    0.000000
 ---------------------------------------------------------------------
 Rotational constants (GHZ):         107.0007414           1.9283734           1.9213298
 Leave Link  202 at Fri Jan  3 11:24:24 2025, MaxMem=   104857600 cpu:               0.0 elap:               0.0
 (Enter /opt/g16/l301.exe)
 Standard basis: STO-3G (5D, 7F)
 Ernie: Thresh=  0.10000D-02 Tol=  0.10000D-05 Strict=F.
 There are    17 symmetry adapted cartesian basis functions of A'  symmetry.
 There are     5 symmetry adapted cartesian basis functions of A"  symmetry.
 There are    17 symmetry adapted basis functions of A'  symmetry.
 There are     5 symmetry adapted basis functions of A"  symmetry.
    22 basis functions,    66 primitive gaussians,    22 cartesian basis functions
    18 alpha electrons       18 beta electrons
       nuclear repulsion energy        70.0247840866 Hartrees.
 IExCor=    0 DFT=F Ex=HF Corr=None ExCW=0 ScaHFX=  1.000000
 ScaDFX=  1.000000  1.000000  1.000000  1.000000 ScalE2=  1.000000  1.000000
 IRadAn=      5 IRanWt=     -1 IRanGd=            0 ICorTp=0 IEmpDi=  4
 NAtoms=    6 NActive=    6 NUniq=    5 SFac= 1.44D+00 NAtFMM=   60 NAOKFM=F Big=F
 Integral buffers will be    131072 words long.
 Raffenetti 1 integral format.
 Two-electron integral symmetry is turned on.
 Leave Link  301 at Fri Jan  3 11:24:24 2025, MaxMem=   104857600 cpu:               0.0 elap:               0.0
 (Enter /opt/g16/l402.exe)
 External calculation of energy, first and second derivatives.
 Running external command "python3 -u ../pes/h4s2_pes.py R"
         input file       "/home/jhli/scratch/g16/Gau-115214.EIn"
         output file      "/home/jhli/scratch/g16/Gau-115214.EOu"
         message file     "/home/jhli/scratch/g16/Gau-115214.EMs"
         fchk file        "/home/jhli/scratch/g16/Gau-115214.EFC"
         mat. el file     "/home/jhli/scratch/g16/Gau-115214.EUF"
 initialization done
 Recovered energy= -797.920072120     dipole=      0.000000000000      0.000000000000      0.000000000000
 Energy=    -797.920072     NIter=   0.
 Dipole moment=       0.000000       0.000000       0.000000
 Leave Link  402 at Fri Jan  3 11:24:24 2025, MaxMem=   104857600 cpu:               0.0 elap:               0.2
 (Enter /opt/g16/l601.exe)
 Leave Link  601 at Fri Jan  3 11:24:24 2025, MaxMem=   104857600 cpu:               0.0 elap:               0.0
 (Enter /opt/g16/l716.exe)
 Dipole        = 0.00000000D+00 0.00000000D+00 0.00000000D+00
 ***** Axes restored to original set *****
 -------------------------------------------------------------------
 Center     Atomic                   Forces (Hartrees/Bohr)
 Number     Number              X              Y              Z
 -------------------------------------------------------------------
      1        1          -0.000018098    0.000028314    0.000000000
      2        1          -0.000085232   -0.000053027   -0.000000000
      3        1          -0.000000821   -0.000009792    0.000020301
      4        1          -0.000000821   -0.000009792   -0.000020301
      5       16           0.000090883    0.000045571   -0.000000000
      6       16           0.000016300   -0.000000689   -0.000000000
 -------------------------------------------------------------------
 Cartesian Forces:  Max     0.000090883 RMS     0.000035610
 Force constants in Cartesian coordinates: 
                1             2             3             4             5 
      1  0.149890D+00
      2 -0.124132D+00  0.151864D+00
      3  0.000000D+00  0.000000D+00  0.179781D-03
      4  0.101806D-01  0.154944D-01  0.000000D+00  0.132907D+00
      5 -0.127029D-01 -0.154187D-01  0.000000D+00  0.122687D+00  0.168925D+00
      6  0.000000D+00  0.000000D+00 -0.378171D-03  0.000000D+00  0.000000D+00
      7 -0.580933D-04 -0.177085D-03  0.980262D-04 -0.354882D-03  0.414813D-04
      8  0.243090D-05  0.756597D-04 -0.181453D-03  0.343719D-03  0.167132D-03
      9  0.326709D-05 -0.558678D-04  0.176226D-04 -0.332813D-04  0.137777D-03
     10 -0.580948D-04 -0.177085D-03 -0.980263D-04 -0.354882D-03  0.414815D-04
     11  0.242900D-05  0.756590D-04  0.181452D-03  0.343719D-03  0.167132D-03
     12 -0.326748D-05  0.558682D-04  0.176226D-04  0.332820D-04 -0.137777D-03
     13 -0.160084D+00  0.108731D+00  0.000000D+00 -0.142597D+00 -0.109735D+00
     14  0.137311D+00 -0.135612D+00  0.000000D+00 -0.137765D+00 -0.152868D+00
     15  0.000000D+00  0.000000D+00 -0.350279D-04  0.000000D+00  0.000000D+00
     16  0.127982D-03  0.261826D-03  0.000000D+00  0.218060D-03 -0.333600D-03
     17 -0.481694D-03 -0.985053D-03  0.000000D+00 -0.110423D-02 -0.972425D-03
     18  0.000000D+00  0.000000D+00  0.196891D-03  0.000000D+00  0.000000D+00
                6             7             8             9            10 
      6  0.116232D-02
      7 -0.373839D-03  0.105983D+00
      8  0.423726D-03  0.614615D-01  0.362689D-01
      9 -0.381100D-04  0.106514D+00  0.621274D-01  0.159557D+00
     10  0.373839D-03  0.724025D-02  0.425929D-02 -0.123491D-01  0.105983D+00
     11 -0.423726D-03  0.425929D-02  0.238560D-02 -0.709910D-02  0.614615D-01
     12 -0.381106D-04  0.123491D-01  0.709910D-02 -0.162721D-01 -0.106514D+00
     13  0.000000D+00  0.267444D-03 -0.265457D-03  0.000000D+00  0.267445D-03
     14  0.000000D+00  0.109436D-03 -0.113282D-03  0.138812D-04  0.109435D-03
     15 -0.178570D-03  0.536329D-04 -0.841364D-05 -0.573428D-04 -0.536324D-04
     16  0.000000D+00 -0.113076D+00 -0.658029D-01 -0.941354D-01 -0.113076D+00
     17  0.000000D+00 -0.656931D-01 -0.387826D-01 -0.551252D-01 -0.656931D-01
     18 -0.530765D-03 -0.118640D+00 -0.694603D-01 -0.143207D+00  0.118640D+00
               11            12            13            14            15 
     11  0.362689D-01
     12 -0.621274D-01  0.159557D+00
     13 -0.265457D-03  0.000000D+00  0.302315D+00
     14 -0.113282D-03 -0.138808D-04 -0.150592D-03  0.289627D+00
     15  0.841260D-05 -0.573440D-04  0.000000D+00  0.000000D+00  0.183195D-03
     16 -0.658029D-01  0.941354D-01 -0.166206D-03  0.385523D-03  0.000000D+00
     17 -0.387826D-01  0.551252D-01  0.168622D-02 -0.921082D-03  0.000000D+00
     18  0.694603D-01 -0.143207D+00  0.000000D+00  0.000000D+00  0.147721D-03
               16            17            18 
     16  0.225969D+00
     17  0.131289D+00  0.804419D-01
     18  0.000000D+00  0.000000D+00  0.286599D+00
 FormGI is forming the generalized inverse of G from B-inverse, IUseBI=4.
 Force constants in internal coordinates: 
                1             2             3             4             5 
      1  0.274957D+00
      2 -0.894900D-04  0.688640D-03
      3 -0.371617D-04  0.216663D-03  0.156511D-02
      4 -0.836265D-03  0.235320D-03  0.292235D-03  0.274356D+00
      5  0.308689D-03 -0.626790D-03 -0.733424D-03  0.725210D-03  0.307444D-02
      6 -0.171119D-04  0.318500D-02  0.142269D-02 -0.132889D-03  0.108608D-02
      7 -0.304324D-04  0.227452D-02  0.104837D-01 -0.147377D-03 -0.668342D-02
      8 -0.563383D-05  0.166315D-02  0.426631D-02 -0.651810D-04 -0.270832D-02
      9  0.171966D-03 -0.631298D-03  0.812507D-03 -0.362027D-03  0.501257D-03
     10  0.174104D-03  0.382264D-03 -0.692977D-03 -0.359700D-03  0.988287D-03
     11  0.169693D-03 -0.202776D-03 -0.413108D-03 -0.437639D-03  0.123454D-02
     12  0.937873D-02 -0.334382D-03  0.278917D-04  0.934078D-02  0.237092D-02
     13 -0.208381D-04  0.319219D-02  0.895539D-02  0.225255D-05 -0.653212D-02
     14  0.128925D-04  0.864312D-03  0.194833D-02 -0.640134D-04 -0.109196D-02
     15 -0.111882D-04 -0.836303D-03 -0.247963D-02  0.658657D-04  0.158366D-02
     16 -0.170387D-05  0.537209D-03  0.415606D-04 -0.185234D-05 -0.561982D-03
     17  0.135636D-03  0.503092D-03  0.186909D-02  0.147525D-03 -0.370150D-03
                6             7             8             9            10 
      6  0.255950D+00
      7 -0.946354D-02  0.252603D+00
      8  0.284952D-01  0.262701D-01  0.178729D-01
      9 -0.171724D-01  0.280691D-02 -0.171583D-03  0.304869D-02
     10  0.318776D-02 -0.171822D-01  0.333016D-04 -0.166617D-02  0.308244D-02
     11  0.111114D-01  0.115806D-01 -0.139699D-02 -0.108510D-02 -0.111991D-02
     12 -0.479932D-04 -0.140214D-03 -0.109482D-04  0.121180D-02  0.122660D-02
     13 -0.101393D-01 -0.143732D-01  0.352347D-01  0.539513D-02  0.580511D-02
     14  0.225206D-01  0.476671D-02  0.933940D-02 -0.158911D-03  0.223714D-03
     15 -0.577653D-02 -0.211926D-01 -0.915543D-02 -0.100748D-03  0.668086D-04
     16 -0.169585D-01  0.166249D-01 -0.198057D-03 -0.270463D-03  0.236922D-03
     17 -0.114622D-02  0.178347D-01  0.672721D-02  0.105691D-02 -0.105421D-03
               11            12            13            14            15 
     11  0.240340D-02
     12  0.117245D-02  0.171739D+00
     13 -0.138726D-01 -0.118266D-04  0.124020D+00
     14 -0.835188D-03  0.105618D-03  0.189080D-01  0.566851D-02
     15  0.801953D-03 -0.938219D-04 -0.185447D-01 -0.400775D-02  0.547534D-02
     16  0.369814D-04 -0.117933D-04 -0.388263D-03 -0.152432D-02 -0.131634D-02
     17 -0.539808D-03  0.939014D-03  0.149010D-01  0.293247D-02 -0.411560D-02
               16            17 
     16  0.374786D-02
     17  0.135737D-02  0.377093D-02
 Leave Link  716 at Fri Jan  3 11:24:24 2025, MaxMem=   104857600 cpu:               0.0 elap:               0.0
 (Enter /opt/g16/l103.exe)

 GradGradGradGradGradGradGradGradGradGradGradGradGradGradGradGradGradGrad
 Berny optimization.
 Red2BG is reusing G-inverse.
 Internal  Forces:  Max     0.000101504 RMS     0.000028594
 Search for a saddle point.
 Step number   1 out of a maximum of   27
 All quantities printed in internal units (Hartrees-Bohrs-Radians)
 Swapping is turned off.
 Second derivative matrix not updated -- analytic derivatives used.
 The second derivative matrix:
                          R1        R2        R3        R4        R5
           R1           0.27496
           R2          -0.00009   0.00069
           R3          -0.00004   0.00022   0.00157
           R4          -0.00084   0.00024   0.00029   0.27436
           R5           0.00031  -0.00063  -0.00073   0.00073   0.00307
           R6          -0.00002   0.00319   0.00142  -0.00013   0.00109
           R7          -0.00003   0.00227   0.01048  -0.00015  -0.00668
           A1          -0.00001   0.00166   0.00427  -0.00007  -0.00271
           A2           0.00017  -0.00063   0.00081  -0.00036   0.00050
           A3           0.00017   0.00038  -0.00069  -0.00036   0.00099
           A4           0.00017  -0.00020  -0.00041  -0.00044   0.00123
           A5           0.00938  -0.00033   0.00003   0.00934   0.00237
           A6          -0.00002   0.00319   0.00896   0.00000  -0.00653
           D1           0.00001   0.00086   0.00195  -0.00006  -0.00109
           D2          -0.00001  -0.00084  -0.00248   0.00007   0.00158
           D3          -0.00000   0.00054   0.00004  -0.00000  -0.00056
           D4           0.00014   0.00050   0.00187   0.00015  -0.00037
                          R6        R7        A1        A2        A3
           R6           0.25595
           R7          -0.00946   0.25260
           A1           0.02850   0.02627   0.01787
           A2          -0.01717   0.00281  -0.00017   0.00305
           A3           0.00319  -0.01718   0.00003  -0.00167   0.00308
           A4           0.01111   0.01158  -0.00140  -0.00109  -0.00112
           A5          -0.00005  -0.00014  -0.00001   0.00121   0.00123
           A6          -0.01014  -0.01437   0.03523   0.00540   0.00581
           D1           0.02252   0.00477   0.00934  -0.00016   0.00022
           D2          -0.00578  -0.02119  -0.00916  -0.00010   0.00007
           D3          -0.01696   0.01662  -0.00020  -0.00027   0.00024
           D4          -0.00115   0.01783   0.00673   0.00106  -0.00011
                          A4        A5        A6        D1        D2
           A4           0.00240
           A5           0.00117   0.17174
           A6          -0.01387  -0.00001   0.12402
           D1          -0.00084   0.00011   0.01891   0.00567
           D2           0.00080  -0.00009  -0.01854  -0.00401   0.00548
           D3           0.00004  -0.00001  -0.00039  -0.00152  -0.00132
           D4          -0.00054   0.00094   0.01490   0.00293  -0.00412
                          D3        D4
           D3           0.00375
           D4           0.00136   0.00377
 ITU=  0
     Eigenvalues ---   -0.00050   0.00003   0.00027   0.00062   0.00361
     Eigenvalues ---    0.00530   0.14606   0.17011   0.25797   0.26955
     Eigenvalues ---    0.27521   0.27580
 Eigenvectors required to have negative eigenvalues:
                          A4        A2        A3        R5        D4
   1                    0.55474   0.51153   0.50585  -0.38647  -0.14026
                          D2        D1        R3        D3        A5
   1                   -0.05031   0.04025  -0.03779  -0.00726  -0.00512
 RFO step:  Lambda0=6.603010943D-07 Lambda=-5.73225109D-07.
 Linear search not attempted -- option 19 set.
 Iteration  1 RMS(Cart)=  0.01849210 RMS(Int)=  0.00021515
 Iteration  2 RMS(Cart)=  0.00015988 RMS(Int)=  0.00003048
 Iteration  3 RMS(Cart)=  0.00000002 RMS(Int)=  0.00003048
 ITry= 1 IFail=0 DXMaxC= 3.67D-02 DCOld= 1.00D+10 DXMaxT= 3.00D-01 DXLimC= 3.00D+00 Rises=F
 ClnCor:  largest displacement from symmetrization is 1.86D-04 for atom     4.
 Variable       Old X    -DE/DX   Delta X   Delta X   Delta X     New X
                                 (Linear)    (Quad)   (Total)
    R1        2.53034   0.00003   0.00000   0.00012   0.00012   2.53046
    R2        5.85551   0.00001   0.00000   0.02869   0.02867   5.88419
    R3        5.85551   0.00001   0.00000   0.02883   0.02867   5.88419
    R4        2.53092   0.00010   0.00000   0.00043   0.00043   2.53135
    R5        5.73501   0.00001   0.00000  -0.00723  -0.00723   5.72778
    R6        2.53149   0.00001   0.00000  -0.00000  -0.00001   2.53148
    R7        2.53149   0.00000   0.00000  -0.00000  -0.00001   2.53148
    A1        0.63412   0.00001   0.00000  -0.00311  -0.00310   0.63102
    A2        1.81992  -0.00001   0.00000   0.02035   0.02037   1.84029
    A3        1.81992  -0.00001   0.00000   0.02036   0.02037   1.84029
    A4        2.14351  -0.00001   0.00000   0.02131   0.02126   2.16477
    A5        1.62450   0.00002   0.00000  -0.00014  -0.00014   1.62436
    A6        1.61095   0.00004   0.00000   0.00037   0.00032   1.61127
    D1       -2.81406   0.00001   0.00000   0.00020   0.00023  -2.81383
    D2        2.81406  -0.00001   0.00000  -0.00010  -0.00023   2.81383
    D3        3.14159  -0.00000   0.00000   0.00006   0.00000   3.14159
    D4       -1.38735   0.00001   0.00000  -0.01573  -0.01565  -1.40301
         Item               Value     Threshold  Converged?
 Maximum Force            0.000102     0.000450     YES
 RMS     Force            0.000029     0.000300     YES
 Maximum Displacement     0.036710     0.001800     NO 
 RMS     Displacement     0.018455     0.001200     NO 
 Predicted change in Energy= 4.401176D-08
 GradGradGradGradGradGradGradGradGradGradGradGradGradGradGradGradGradGrad

 Leave Link  103 at Fri Jan  3 11:24:24 2025, MaxMem=   104857600 cpu:               0.0 elap:               0.0
 (Enter /opt/g16/l202.exe)
                          Input orientation:                          
 ---------------------------------------------------------------------
 Center     Atomic      Atomic             Coordinates (Angstroms)
 Number     Number       Type             X           Y           Z
 ---------------------------------------------------------------------
      1          1           0       -0.941774    2.898628    0.000000
      2          1           0       -0.839926    0.957199    0.000000
      3          1           0        0.784489   -1.517336    0.966214
      4          1           0        0.784489   -1.517336   -0.966214
      5         16           0        0.029192    1.976506    0.000000
      6         16           0       -0.029159   -1.963364    0.000000
 ---------------------------------------------------------------------
                    Distance matrix (angstroms):
                    1          2          3          4          5
     1  H    0.000000
     2  H    1.944098   0.000000
     3  H    4.838832   3.113779   0.000000
     4  H    4.838832   3.113779   1.932429   0.000000
     5  S    1.339061   1.339534   3.702833   3.702833   0.000000
     6  S    4.946901   3.031012   1.339602   1.339602   3.940302
                    6
     6  S    0.000000
 Stoichiometry    H4S2
 Framework group  CS[SG(H2S2),X(H2)]
 Deg. of freedom     8
 Full point group                 CS      NOp   2
 RotChk:  IX=0 Diff= 1.91D-03
 Largest Abelian subgroup         CS      NOp   2
 Largest concise Abelian subgroup CS      NOp   2
                         Standard orientation:                         
 ---------------------------------------------------------------------
 Center     Atomic      Atomic             Coordinates (Angstroms)
 Number     Number       Type             X           Y           Z
 ---------------------------------------------------------------------
      1          1           0       -0.978278    2.855804    0.000000
      2          1           0       -0.847691    0.916096    0.000000
      3          1           0        0.813190   -1.534113    0.966214
      4          1           0        0.813190   -1.534113   -0.966214
      5         16           0        0.006237    1.948161    0.000000
      6         16           0        0.006237   -1.992141    0.000000
 ---------------------------------------------------------------------
 Rotational constants (GHZ):         106.1546194           1.9138943           1.9066932
 Leave Link  202 at Fri Jan  3 11:24:24 2025, MaxMem=   104857600 cpu:               0.0 elap:               0.0
 (Enter /opt/g16/l301.exe)
 Standard basis: STO-3G (5D, 7F)
 Ernie: Thresh=  0.10000D-02 Tol=  0.10000D-05 Strict=F.
 There are    17 symmetry adapted cartesian basis functions of A'  symmetry.
 There are     5 symmetry adapted cartesian basis functions of A"  symmetry.
 There are    17 symmetry adapted basis functions of A'  symmetry.
 There are     5 symmetry adapted basis functions of A"  symmetry.
    22 basis functions,    66 primitive gaussians,    22 cartesian basis functions
    18 alpha electrons       18 beta electrons
       nuclear repulsion energy        69.8477343298 Hartrees.
 IExCor=    0 DFT=F Ex=HF Corr=None ExCW=0 ScaHFX=  1.000000
 ScaDFX=  1.000000  1.000000  1.000000  1.000000 ScalE2=  1.000000  1.000000
 IRadAn=      5 IRanWt=     -1 IRanGd=            0 ICorTp=0 IEmpDi=  4
 NAtoms=    6 NActive=    6 NUniq=    5 SFac= 1.44D+00 NAtFMM=   60 NAOKFM=F Big=F
 Integral buffers will be    131072 words long.
 Raffenetti 1 integral format.
 Two-electron integral symmetry is turned on.
 Leave Link  301 at Fri Jan  3 11:24:24 2025, MaxMem=   104857600 cpu:               0.0 elap:               0.0
 (Enter /opt/g16/l402.exe)
 External calculation of energy, first and second derivatives.
 Running external command "python3 -u ../pes/h4s2_pes.py R"
         input file       "/home/jhli/scratch/g16/Gau-115214.EIn"
         output file      "/home/jhli/scratch/g16/Gau-115214.EOu"
         message file     "/home/jhli/scratch/g16/Gau-115214.EMs"
         fchk file        "/home/jhli/scratch/g16/Gau-115214.EFC"
         mat. el file     "/home/jhli/scratch/g16/Gau-115214.EUF"
 initialization done
 Recovered energy= -797.920071270     dipole=      0.000000000000      0.000000000000      0.000000000000
 Energy=    -797.920071     NIter=   0.
 Dipole moment=       0.000000       0.000000       0.000000
 Leave Link  402 at Fri Jan  3 11:24:24 2025, MaxMem=   104857600 cpu:               0.0 elap:               0.2
 (Enter /opt/g16/l716.exe)
 Dipole        = 0.00000000D+00 0.00000000D+00 0.00000000D+00
 ***** Axes restored to original set *****
 -------------------------------------------------------------------
 Center     Atomic                   Forces (Hartrees/Bohr)
 Number     Number              X              Y              Z
 -------------------------------------------------------------------
      1        1           0.000001575    0.000001261    0.000000000
      2        1          -0.000000479    0.000001221   -0.000000000
      3        1          -0.000001400   -0.000000481    0.000003780
      4        1          -0.000001400   -0.000000481   -0.000003780
      5       16           0.000001060   -0.000000264   -0.000000000
      6       16           0.000002675   -0.000000642    0.000000000
 -------------------------------------------------------------------
 Cartesian Forces:  Max     0.000003780 RMS     0.000001625
 Force constants in Cartesian coordinates: 
                1             2             3             4             5 
      1  0.153526D+00
      2 -0.124065D+00  0.148145D+00
      3  0.000000D+00  0.000000D+00  0.186404D-03
      4  0.101296D-01  0.158748D-01  0.000000D+00  0.129190D+00
      5 -0.123272D-01 -0.153761D-01  0.000000D+00  0.121914D+00  0.172302D+00
      6  0.000000D+00  0.000000D+00 -0.372463D-03  0.000000D+00  0.000000D+00
      7 -0.512879D-04 -0.168477D-03  0.923621D-04 -0.341155D-03  0.363969D-04
      8  0.455230D-05  0.799778D-04 -0.177884D-03  0.348616D-03  0.174923D-03
      9  0.133325D-05 -0.552660D-04  0.163519D-04 -0.300266D-04  0.146658D-03
     10 -0.512871D-04 -0.168478D-03 -0.923613D-04 -0.341156D-03  0.363967D-04
     11  0.455340D-05  0.799776D-04  0.177885D-03  0.348616D-03  0.174923D-03
     12 -0.133430D-05  0.552650D-04  0.163511D-04  0.300251D-04 -0.146657D-03
     13 -0.163666D+00  0.108288D+00  0.000000D+00 -0.138832D+00 -0.109319D+00
     14  0.136849D+00 -0.131942D+00  0.000000D+00 -0.137371D+00 -0.156305D+00
     15  0.000000D+00  0.000000D+00 -0.414704D-04  0.000000D+00  0.000000D+00
     16  0.111267D-03  0.240664D-03  0.000000D+00  0.194032D-03 -0.342975D-03
     17 -0.466327D-03 -0.986285D-03  0.000000D+00 -0.111549D-02 -0.971241D-03
     18  0.000000D+00  0.000000D+00  0.193544D-03  0.000000D+00  0.000000D+00
                6             7             8             9            10 
      6  0.121613D-02
      7 -0.365381D-03  0.109321D+00
      8  0.433410D-03  0.594284D-01  0.329100D-01
      9 -0.387104D-04  0.108197D+00  0.591585D-01  0.159579D+00
     10  0.365381D-03  0.747046D-02  0.412248D-02 -0.125454D-01  0.109321D+00
     11 -0.433410D-03  0.412248D-02  0.215124D-02 -0.676043D-02  0.594284D-01
     12 -0.387100D-04  0.125454D-01  0.676043D-02 -0.162516D-01 -0.108197D+00
     13  0.000000D+00  0.249124D-03 -0.272205D-03 -0.106154D-05  0.249124D-03
     14  0.000000D+00  0.105489D-03 -0.117594D-03  0.982255D-05  0.105488D-03
     15 -0.228273D-03  0.560652D-04 -0.188873D-04 -0.528399D-04 -0.560662D-04
     16  0.000000D+00 -0.116647D+00 -0.636333D-01 -0.956233D-01 -0.116647D+00
     17  0.000000D+00 -0.635227D-01 -0.351974D-01 -0.525004D-01 -0.635227D-01
     18 -0.539388D-03 -0.120525D+00 -0.661556D-01 -0.143252D+00  0.120525D+00
               11            12            13            14            15 
     11  0.329100D-01
     12 -0.591585D-01  0.159579D+00
     13 -0.272206D-03  0.106281D-05  0.302129D+00
     14 -0.117594D-03 -0.982289D-05 -0.835426D-04  0.289361D+00
     15  0.188881D-04 -0.528399D-04  0.000000D+00  0.000000D+00  0.227076D-03
     16 -0.636333D-01  0.956233D-01 -0.125714D-03  0.394249D-03  0.000000D+00
     17 -0.351974D-01  0.525004D-01  0.165892D-02 -0.878763D-03  0.000000D+00
     18  0.661556D-01 -0.143252D+00  0.000000D+00  0.000000D+00  0.150973D-03
               16            17            18 
     16  0.233113D+00
     17  0.126971D+00  0.732294D-01
     18  0.000000D+00  0.000000D+00  0.286699D+00
 FormGI is forming the generalized inverse of G from B-inverse, IUseBI=4.
 Force constants in internal coordinates: 
                1             2             3             4             5 
      1  0.274874D+00
      2 -0.877382D-04  0.683041D-03
      3 -0.360835D-04  0.191736D-03  0.151600D-02
      4 -0.840934D-03  0.233999D-03  0.292046D-03  0.274016D+00
      5  0.303278D-03 -0.620088D-03 -0.699227D-03  0.733350D-03  0.302936D-02
      6 -0.148143D-04  0.321686D-02  0.141018D-02 -0.140181D-03  0.102047D-02
      7 -0.285998D-04  0.223314D-02  0.110122D-01 -0.155673D-03 -0.718423D-02
      8 -0.473353D-05  0.162629D-02  0.412931D-02 -0.647431D-04 -0.256781D-02
      9  0.168679D-03 -0.643721D-03  0.779037D-03 -0.370465D-03  0.497364D-03
     10  0.170943D-03  0.371643D-03 -0.779508D-03 -0.367920D-03  0.103327D-02
     11  0.167915D-03 -0.194842D-03 -0.330941D-03 -0.447228D-03  0.111890D-02
     12  0.938089D-02 -0.333482D-03  0.236772D-04  0.934597D-02  0.233966D-02
     13 -0.191549D-04  0.310109D-02  0.836543D-02  0.825081D-05 -0.588974D-02
     14  0.143634D-04  0.841768D-03  0.187609D-02 -0.674060D-04 -0.100515D-02
     15 -0.126025D-04 -0.826768D-03 -0.242532D-02  0.693841D-04  0.152595D-02
     16 -0.176051D-05  0.536250D-03  0.725595D-04 -0.197808D-05 -0.590194D-03
     17  0.133101D-03  0.458722D-03  0.177769D-02  0.149574D-03 -0.287832D-03
                6             7             8             9            10 
      6  0.255955D+00
      7 -0.935372D-02  0.252157D+00
      8  0.283775D-01  0.261389D-01  0.178165D-01
      9 -0.175202D-01  0.294915D-02 -0.235920D-03  0.296403D-02
     10  0.331970D-02 -0.174582D-01 -0.232569D-04 -0.162929D-02  0.299140D-02
     11  0.111157D-01  0.115230D-01 -0.140559D-02 -0.109773D-02 -0.112802D-02
     12 -0.360229D-04 -0.131340D-03 -0.169669D-04  0.119299D-02  0.120864D-02
     13 -0.100911D-01 -0.141451D-01  0.354307D-01  0.526504D-02  0.566942D-02
     14  0.224692D-01  0.475766D-02  0.936008D-02 -0.218524D-03  0.222319D-03
     15 -0.575763D-02 -0.211082D-01 -0.917481D-02 -0.981247D-04  0.118618D-03
     16 -0.169231D-01  0.165458D-01 -0.198522D-03 -0.178588D-03  0.152308D-03
     17 -0.107351D-02  0.190195D-01  0.643319D-02  0.990075D-03 -0.292705D-03
               11            12            13            14            15 
     11  0.237716D-02
     12  0.116964D-02  0.171667D+00
     13 -0.138894D-01 -0.401087D-04  0.125028D+00
     14 -0.850733D-03  0.110027D-03  0.191414D-01  0.570108D-02
     15  0.822488D-03 -0.978551D-04 -0.187933D-01 -0.404956D-02  0.550581D-02
     16  0.313748D-04 -0.121747D-04 -0.370378D-03 -0.151921D-02 -0.130994D-02
     17 -0.346784D-03  0.920318D-03  0.135366D-01  0.275535D-02 -0.401152D-02
               16            17 
     16  0.370464D-02
     17  0.142866D-02  0.360648D-02
 Leave Link  716 at Fri Jan  3 11:24:24 2025, MaxMem=   104857600 cpu:               0.0 elap:               0.0
 (Enter /opt/g16/l103.exe)

 GradGradGradGradGradGradGradGradGradGradGradGradGradGradGradGradGradGrad
 Berny optimization.
 Red2BG is reusing G-inverse.
 Internal  Forces:  Max     0.000007513 RMS     0.000002224
 Search for a saddle point.
 Step number   2 out of a maximum of   27
 All quantities printed in internal units (Hartrees-Bohrs-Radians)
 Swapping is turned off.
 Second derivative matrix not updated -- analytic derivatives used.
 The second derivative matrix:
                          R1        R2        R3        R4        R5
           R1           0.27487
           R2          -0.00009   0.00068
           R3          -0.00004   0.00019   0.00152
           R4          -0.00084   0.00023   0.00029   0.27402
           R5           0.00030  -0.00062  -0.00070   0.00073   0.00303
           R6          -0.00001   0.00322   0.00141  -0.00014   0.00102
           R7          -0.00003   0.00223   0.01101  -0.00016  -0.00718
           A1          -0.00000   0.00163   0.00413  -0.00006  -0.00257
           A2           0.00017  -0.00064   0.00078  -0.00037   0.00050
           A3           0.00017   0.00037  -0.00078  -0.00037   0.00103
           A4           0.00017  -0.00019  -0.00033  -0.00045   0.00112
           A5           0.00938  -0.00033   0.00002   0.00935   0.00234
           A6          -0.00002   0.00310   0.00837   0.00001  -0.00589
           D1           0.00001   0.00084   0.00188  -0.00007  -0.00101
           D2          -0.00001  -0.00083  -0.00243   0.00007   0.00153
           D3          -0.00000   0.00054   0.00007  -0.00000  -0.00059
           D4           0.00013   0.00046   0.00178   0.00015  -0.00029
                          R6        R7        A1        A2        A3
           R6           0.25595
           R7          -0.00935   0.25216
           A1           0.02838   0.02614   0.01782
           A2          -0.01752   0.00295  -0.00024   0.00296
           A3           0.00332  -0.01746  -0.00002  -0.00163   0.00299
           A4           0.01112   0.01152  -0.00141  -0.00110  -0.00113
           A5          -0.00004  -0.00013  -0.00002   0.00119   0.00121
           A6          -0.01009  -0.01415   0.03543   0.00527   0.00567
           D1           0.02247   0.00476   0.00936  -0.00022   0.00022
           D2          -0.00576  -0.02111  -0.00917  -0.00010   0.00012
           D3          -0.01692   0.01655  -0.00020  -0.00018   0.00015
           D4          -0.00107   0.01902   0.00643   0.00099  -0.00029
                          A4        A5        A6        D1        D2
           A4           0.00238
           A5           0.00117   0.17167
           A6          -0.01389  -0.00004   0.12503
           D1          -0.00085   0.00011   0.01914   0.00570
           D2           0.00082  -0.00010  -0.01879  -0.00405   0.00551
           D3           0.00003  -0.00001  -0.00037  -0.00152  -0.00131
           D4          -0.00035   0.00092   0.01354   0.00276  -0.00401
                          D3        D4
           D3           0.00370
           D4           0.00143   0.00361
 ITU=  0  0
     Eigenvalues ---   -0.00051   0.00003   0.00026   0.00060   0.00356
     Eigenvalues ---    0.00509   0.14665   0.17004   0.25789   0.26941
     Eigenvalues ---    0.27487   0.27572
 Eigenvectors required to have negative eigenvalues:
                          A4        A2        A3        R5        D4
   1                    0.55683   0.51552   0.50953  -0.37383  -0.13694
                          D2        D1        R3        D3        A5
   1                   -0.05388   0.04441  -0.03275  -0.00717  -0.00535
 RFO step:  Lambda0=7.950717569D-09 Lambda= 0.00000000D+00.
 Linear search not attempted -- option 19 set.
 Iteration  1 RMS(Cart)=  0.00131477 RMS(Int)=  0.00000125
 Iteration  2 RMS(Cart)=  0.00000131 RMS(Int)=  0.00000029
 Iteration  3 RMS(Cart)=  0.00000000 RMS(Int)=  0.00000029
 ITry= 1 IFail=0 DXMaxC= 3.21D-03 DCOld= 1.00D+10 DXMaxT= 3.00D-01 DXLimC= 3.00D+00 Rises=F
 ClnCor:  largest displacement from symmetrization is 1.56D-06 for atom     4.
 Variable       Old X    -DE/DX   Delta X   Delta X   Delta X     New X
                                 (Linear)    (Quad)   (Total)
    R1        2.53046   0.00000   0.00000  -0.00000  -0.00000   2.53046
    R2        5.88419  -0.00000   0.00000  -0.00039  -0.00039   5.88380
    R3        5.88419   0.00000   0.00000  -0.00039  -0.00039   5.88380
    R4        2.53135   0.00000   0.00000   0.00002   0.00002   2.53137
    R5        5.72778   0.00000   0.00000  -0.00126  -0.00126   5.72653
    R6        2.53148   0.00000   0.00000   0.00000   0.00000   2.53149
    R7        2.53148   0.00000   0.00000   0.00000   0.00000   2.53149
    A1        0.63102   0.00000   0.00000   0.00006   0.00006   0.63108
    A2        1.84029  -0.00000   0.00000   0.00208   0.00208   1.84237
    A3        1.84029  -0.00000   0.00000   0.00208   0.00208   1.84237
    A4        2.16477  -0.00000   0.00000   0.00225   0.00225   2.16702
    A5        1.62436   0.00000   0.00000  -0.00001  -0.00001   1.62435
    A6        1.61127   0.00001   0.00000   0.00005   0.00005   1.61132
    D1       -2.81383   0.00000   0.00000   0.00023   0.00023  -2.81361
    D2        2.81383  -0.00000   0.00000  -0.00023  -0.00023   2.81361
    D3        3.14159  -0.00000   0.00000   0.00000   0.00000   3.14159
    D4       -1.40301   0.00000   0.00000  -0.00032  -0.00032  -1.40333
         Item               Value     Threshold  Converged?
 Maximum Force            0.000008     0.000450     YES
 RMS     Force            0.000002     0.000300     YES
 Maximum Displacement     0.003210     0.001800     NO 
 RMS     Displacement     0.001314     0.001200     NO 
 Predicted change in Energy= 3.473474D-09
 GradGradGradGradGradGradGradGradGradGradGradGradGradGradGradGradGradGrad

 Leave Link  103 at Fri Jan  3 11:24:24 2025, MaxMem=   104857600 cpu:               0.0 elap:               0.0
 (Enter /opt/g16/l202.exe)
                          Input orientation:                          
 ---------------------------------------------------------------------
 Center     Atomic      Atomic             Coordinates (Angstroms)
 Number     Number       Type             X           Y           Z
 ---------------------------------------------------------------------
      1          1           0       -0.943118    2.898526    0.000000
      2          1           0       -0.838228    0.957266    0.000000
      3          1           0        0.784494   -1.518111    0.966241
      4          1           0        0.784494   -1.518111   -0.966241
      5         16           0        0.029301    1.977937    0.000000
      6         16           0       -0.029634   -1.963210    0.000000
 ---------------------------------------------------------------------
                    Distance matrix (angstroms):
                    1          2          3          4          5
     1  H    0.000000
     2  H    1.944091   0.000000
     3  H    4.839933   3.113574   0.000000
     4  H    4.839933   3.113574   1.932482   0.000000
     5  S    1.339061   1.339543   3.704901   3.704901   0.000000
     6  S    4.946810   3.030348   1.339604   1.339604   3.941589
                    6
     6  S    0.000000
 Stoichiometry    H4S2
 Framework group  CS[SG(H2S2),X(H2)]
 Deg. of freedom     8
 Full point group                 CS      NOp   2
 RotChk:  IX=0 Diff= 2.03D-04
 Largest Abelian subgroup         CS      NOp   2
 Largest concise Abelian subgroup CS      NOp   2
                         Standard orientation:                         
 ---------------------------------------------------------------------
 Center     Atomic      Atomic             Coordinates (Angstroms)
 Number     Number       Type             X           Y           Z
 ---------------------------------------------------------------------
      1          1           0       -0.979868    2.854882    0.000000
      2          1           0       -0.845963    0.915408    0.000000
      3          1           0        0.813590   -1.535429    0.966241
      4          1           0        0.813590   -1.535429   -0.966241
      5         16           0        0.006208    1.948937    0.000000
      6         16           0        0.006208   -1.992652    0.000000
 ---------------------------------------------------------------------
 Rotational constants (GHZ):         106.1223698           1.9127089           1.9055078
 Leave Link  202 at Fri Jan  3 11:24:24 2025, MaxMem=   104857600 cpu:               0.0 elap:               0.0
 (Enter /opt/g16/l301.exe)
 Standard basis: STO-3G (5D, 7F)
 Ernie: Thresh=  0.10000D-02 Tol=  0.10000D-05 Strict=F.
 There are    17 symmetry adapted cartesian basis functions of A'  symmetry.
 There are     5 symmetry adapted cartesian basis functions of A"  symmetry.
 There are    17 symmetry adapted basis functions of A'  symmetry.
 There are     5 symmetry adapted basis functions of A"  symmetry.
    22 basis functions,    66 primitive gaussians,    22 cartesian basis functions
    18 alpha electrons       18 beta electrons
       nuclear repulsion energy        69.8345080414 Hartrees.
 IExCor=    0 DFT=F Ex=HF Corr=None ExCW=0 ScaHFX=  1.000000
 ScaDFX=  1.000000  1.000000  1.000000  1.000000 ScalE2=  1.000000  1.000000
 IRadAn=      5 IRanWt=     -1 IRanGd=            0 ICorTp=0 IEmpDi=  4
 NAtoms=    6 NActive=    6 NUniq=    5 SFac= 1.44D+00 NAtFMM=   60 NAOKFM=F Big=F
 Integral buffers will be    131072 words long.
 Raffenetti 1 integral format.
 Two-electron integral symmetry is turned on.
 Leave Link  301 at Fri Jan  3 11:24:24 2025, MaxMem=   104857600 cpu:               0.0 elap:               0.0
 (Enter /opt/g16/l402.exe)
 External calculation of energy, first and second derivatives.
 Running external command "python3 -u ../pes/h4s2_pes.py R"
         input file       "/home/jhli/scratch/g16/Gau-115214.EIn"
         output file      "/home/jhli/scratch/g16/Gau-115214.EOu"
         message file     "/home/jhli/scratch/g16/Gau-115214.EMs"
         fchk file        "/home/jhli/scratch/g16/Gau-115214.EFC"
         mat. el file     "/home/jhli/scratch/g16/Gau-115214.EUF"
 initialization done
 Recovered energy= -797.920071212     dipole=      0.000000000000      0.000000000000      0.000000000000
 Energy=    -797.920071     NIter=   0.
 Dipole moment=       0.000000       0.000000       0.000000
 Leave Link  402 at Fri Jan  3 11:24:25 2025, MaxMem=   104857600 cpu:               0.0 elap:               0.2
 (Enter /opt/g16/l716.exe)
 Dipole        = 0.00000000D+00 0.00000000D+00 0.00000000D+00
 ***** Axes restored to original set *****
 -------------------------------------------------------------------
 Center     Atomic                   Forces (Hartrees/Bohr)
 Number     Number              X              Y              Z
 -------------------------------------------------------------------
      1        1           0.000001221    0.000000477    0.000000000
      2        1           0.000000462    0.000000369    0.000000000
      3        1          -0.000000167   -0.000000129    0.000000057
      4        1          -0.000000167   -0.000000129   -0.000000056
      5       16           0.000000964   -0.000000034   -0.000000000
      6       16          -0.000000289    0.000000062    0.000000000
 -------------------------------------------------------------------
 Cartesian Forces:  Max     0.000001221 RMS     0.000000420
 Force constants in Cartesian coordinates: 
                1             2             3             4             5 
      1  0.153918D+00
      2 -0.124057D+00  0.147752D+00
      3  0.000000D+00  0.000000D+00  0.185122D-03
      4  0.101239D-01  0.159154D-01  0.000000D+00  0.128805D+00
      5 -0.122879D-01 -0.153717D-01  0.000000D+00  0.121836D+00  0.172673D+00
      6  0.000000D+00  0.000000D+00 -0.371348D-03  0.000000D+00  0.000000D+00
      7 -0.509167D-04 -0.168272D-03  0.918745D-04 -0.340790D-03  0.367003D-04
      8  0.491628D-05  0.804124D-04 -0.177449D-03  0.349512D-03  0.174806D-03
      9  0.122278D-05 -0.554488D-04  0.162417D-04 -0.303418D-04  0.146973D-03
     10 -0.509173D-04 -0.168272D-03 -0.918742D-04 -0.340790D-03  0.367002D-04
     11  0.491678D-05  0.804133D-04  0.177449D-03  0.349512D-03  0.174805D-03
     12 -0.122325D-05  0.554492D-04  0.162431D-04  0.303399D-04 -0.146975D-03
     13 -0.164052D+00  0.108241D+00  0.000000D+00 -0.138441D+00 -0.109279D+00
     14  0.136800D+00 -0.131555D+00  0.000000D+00 -0.137334D+00 -0.156682D+00
     15  0.000000D+00  0.000000D+00 -0.403666D-04  0.000000D+00  0.000000D+00
     16  0.109784D-03  0.239282D-03  0.000000D+00  0.192177D-03 -0.344240D-03
     17 -0.465221D-03 -0.986215D-03  0.000000D+00 -0.111595D-02 -0.969101D-03
     18  0.000000D+00  0.000000D+00  0.192825D-03  0.000000D+00  0.000000D+00
                6             7             8             9            10 
      6  0.121822D-02
      7 -0.365164D-03  0.109451D+00
      8  0.434360D-03  0.593393D-01  0.327758D-01
      9 -0.387054D-04  0.108262D+00  0.590356D-01  0.159582D+00
     10  0.365164D-03  0.748038D-02  0.411751D-02 -0.125533D-01  0.109451D+00
     11 -0.434360D-03  0.411750D-02  0.214102D-02 -0.674653D-02  0.593393D-01
     12 -0.387055D-04  0.125533D-01  0.674653D-02 -0.162493D-01 -0.108262D+00
     13  0.000000D+00  0.248292D-03 -0.273036D-03  0.000000D+00  0.248293D-03
     14  0.000000D+00  0.105233D-03 -0.117746D-03  0.100055D-04  0.105233D-03
     15 -0.230565D-03  0.564904D-04 -0.198414D-04 -0.525767D-04 -0.564884D-04
     16  0.000000D+00 -0.116787D+00 -0.635396D-01 -0.956800D-01 -0.116787D+00
     17  0.000000D+00 -0.634288D-01 -0.350531D-01 -0.523916D-01 -0.634288D-01
     18 -0.540300D-03 -0.120598D+00 -0.660191D-01 -0.143257D+00  0.120598D+00
               11            12            13            14            15 
     11  0.327758D-01
     12 -0.590356D-01  0.159582D+00
     13 -0.273037D-03  0.000000D+00  0.302122D+00
     14 -0.117748D-03 -0.100068D-04 -0.708645D-04  0.289350D+00
     15  0.198417D-04 -0.525752D-04  0.000000D+00  0.000000D+00  0.226786D-03
     16 -0.635396D-01  0.956800D-01 -0.122449D-03  0.394886D-03  0.000000D+00
     17 -0.350531D-01  0.523916D-01  0.165592D-02 -0.877579D-03  0.000000D+00
     18  0.660191D-01 -0.143257D+00  0.000000D+00  0.000000D+00  0.151925D-03
               16            17            18 
     16  0.233392D+00
     17  0.126786D+00  0.729375D-01
     18  0.000000D+00  0.000000D+00  0.286709D+00
 FormGI is forming the generalized inverse of G from B-inverse, IUseBI=4.
 Force constants in internal coordinates: 
                1             2             3             4             5 
      1  0.274875D+00
      2 -0.875855D-04  0.683941D-03
      3 -0.360489D-04  0.191331D-03  0.151620D-02
      4 -0.841424D-03  0.233609D-03  0.292172D-03  0.274003D+00
      5  0.302504D-03 -0.620436D-03 -0.699211D-03  0.736498D-03  0.302717D-02
      6 -0.148882D-04  0.322026D-02  0.141015D-02 -0.140242D-03  0.101956D-02
      7 -0.286585D-04  0.223307D-02  0.110269D-01 -0.155890D-03 -0.719557D-02
      8 -0.471150D-05  0.162700D-02  0.412758D-02 -0.644939D-04 -0.256480D-02
      9  0.168262D-03 -0.644117D-03  0.776689D-03 -0.370500D-03  0.495761D-03
     10  0.170527D-03  0.370089D-03 -0.783413D-03 -0.367925D-03  0.103427D-02
     11  0.167512D-03 -0.195070D-03 -0.329671D-03 -0.447556D-03  0.111485D-02
     12  0.938060D-02 -0.334511D-03  0.224152D-04  0.934889D-02  0.233750D-02
     13 -0.189979D-04  0.310169D-02  0.835294D-02  0.914187D-05 -0.587463D-02
     14  0.144742D-04  0.841890D-03  0.187638D-02 -0.675964D-04 -0.100338D-02
     15 -0.127151D-04 -0.828060D-03 -0.242540D-02  0.695953D-04  0.152509D-02
     16 -0.175997D-05  0.535697D-03  0.738642D-04 -0.199962D-05 -0.590901D-03
     17  0.132788D-03  0.458181D-03  0.177607D-02  0.150891D-03 -0.286615D-03
                6             7             8             9            10 
      6  0.255937D+00
      7 -0.935100D-02  0.252128D+00
      8  0.283746D-01  0.261352D-01  0.178169D-01
      9 -0.175586D-01  0.296177D-02 -0.243667D-03  0.296084D-02
     10  0.333178D-02 -0.174936D-01 -0.303132D-04 -0.162849D-02  0.298797D-02
     11  0.111170D-01  0.115231D-01 -0.140634D-02 -0.109888D-02 -0.112915D-02
     12 -0.353659D-04 -0.130737D-03 -0.174171D-04  0.119269D-02  0.120838D-02
     13 -0.101029D-01 -0.141523D-01  0.354305D-01  0.525081D-02  0.565586D-02
     14  0.224707D-01  0.475730D-02  0.936550D-02 -0.223788D-03  0.220519D-03
     15 -0.575783D-02 -0.211081D-01 -0.918010D-02 -0.960396D-04  0.123306D-03
     16 -0.169238D-01  0.165454D-01 -0.198598D-03 -0.171530D-03  0.145567D-03
     17 -0.107269D-02  0.190468D-01  0.642687D-02  0.987753D-03 -0.301410D-03
               11            12            13            14            15 
     11  0.237644D-02
     12  0.117017D-02  0.171655D+00
     13 -0.138925D-01 -0.424686D-04  0.125028D+00
     14 -0.852588D-03  0.110767D-03  0.191562D-01  0.570681D-02
     15  0.824429D-03 -0.985808D-04 -0.188085D-01 -0.405509D-02  0.551128D-02
     16  0.312672D-04 -0.121868D-04 -0.369971D-03 -0.152112D-02 -0.131165D-02
     17 -0.343043D-03  0.919642D-03  0.135031D-01  0.275285D-02 -0.401128D-02
               16            17 
     16  0.370281D-02
     17  0.143042D-02  0.360349D-02
 Leave Link  716 at Fri Jan  3 11:24:25 2025, MaxMem=   104857600 cpu:               0.0 elap:               0.0
 (Enter /opt/g16/l103.exe)

 GradGradGradGradGradGradGradGradGradGradGradGradGradGradGradGradGradGrad
 Berny optimization.
 Red2BG is reusing G-inverse.
 Internal  Forces:  Max     0.000000204 RMS     0.000000081
 Search for a saddle point.
 Step number   3 out of a maximum of   27
 All quantities printed in internal units (Hartrees-Bohrs-Radians)
 Swapping is turned off.
 Second derivative matrix not updated -- analytic derivatives used.
 The second derivative matrix:
                          R1        R2        R3        R4        R5
           R1           0.27488
           R2          -0.00009   0.00068
           R3          -0.00004   0.00019   0.00152
           R4          -0.00084   0.00023   0.00029   0.27400
           R5           0.00030  -0.00062  -0.00070   0.00074   0.00303
           R6          -0.00001   0.00322   0.00141  -0.00014   0.00102
           R7          -0.00003   0.00223   0.01103  -0.00016  -0.00720
           A1          -0.00000   0.00163   0.00413  -0.00006  -0.00256
           A2           0.00017  -0.00064   0.00078  -0.00037   0.00050
           A3           0.00017   0.00037  -0.00078  -0.00037   0.00103
           A4           0.00017  -0.00020  -0.00033  -0.00045   0.00111
           A5           0.00938  -0.00033   0.00002   0.00935   0.00234
           A6          -0.00002   0.00310   0.00835   0.00001  -0.00587
           D1           0.00001   0.00084   0.00188  -0.00007  -0.00100
           D2          -0.00001  -0.00083  -0.00243   0.00007   0.00153
           D3          -0.00000   0.00054   0.00007  -0.00000  -0.00059
           D4           0.00013   0.00046   0.00178   0.00015  -0.00029
                          R6        R7        A1        A2        A3
           R6           0.25594
           R7          -0.00935   0.25213
           A1           0.02837   0.02614   0.01782
           A2          -0.01756   0.00296  -0.00024   0.00296
           A3           0.00333  -0.01749  -0.00003  -0.00163   0.00299
           A4           0.01112   0.01152  -0.00141  -0.00110  -0.00113
           A5          -0.00004  -0.00013  -0.00002   0.00119   0.00121
           A6          -0.01010  -0.01415   0.03543   0.00525   0.00566
           D1           0.02247   0.00476   0.00937  -0.00022   0.00022
           D2          -0.00576  -0.02111  -0.00918  -0.00010   0.00012
           D3          -0.01692   0.01655  -0.00020  -0.00017   0.00015
           D4          -0.00107   0.01905   0.00643   0.00099  -0.00030
                          A4        A5        A6        D1        D2
           A4           0.00238
           A5           0.00117   0.17166
           A6          -0.01389  -0.00004   0.12503
           D1          -0.00085   0.00011   0.01916   0.00571
           D2           0.00082  -0.00010  -0.01881  -0.00406   0.00551
           D3           0.00003  -0.00001  -0.00037  -0.00152  -0.00131
           D4          -0.00034   0.00092   0.01350   0.00275  -0.00401
                          D3        D4
           D3           0.00370
           D4           0.00143   0.00360
 ITU=  0  0  0
     Eigenvalues ---   -0.00052   0.00003   0.00026   0.00060   0.00356
     Eigenvalues ---    0.00508   0.14664   0.17002   0.25787   0.26939
     Eigenvalues ---    0.27486   0.27572
 Eigenvectors required to have negative eigenvalues:
                          A4        A2        A3        R5        D4
   1                    0.55703   0.51576   0.50975  -0.37289  -0.13685
                          D2        D1        R3        D3        A5
   1                   -0.05428   0.04483  -0.03210  -0.00718  -0.00537
 RFO step:  Lambda0=1.017974962D-10 Lambda= 0.00000000D+00.
 Linear search not attempted -- option 19 set.
 Iteration  1 RMS(Cart)=  0.00013903 RMS(Int)=  0.00000001
 Iteration  2 RMS(Cart)=  0.00000002 RMS(Int)=  0.00000000
 ITry= 1 IFail=0 DXMaxC= 3.48D-04 DCOld= 1.00D+10 DXMaxT= 3.00D-01 DXLimC= 3.00D+00 Rises=F
 ClnCor:  largest displacement from symmetrization is 4.97D-07 for atom     4.
 Variable       Old X    -DE/DX   Delta X   Delta X   Delta X     New X
                                 (Linear)    (Quad)   (Total)
    R1        2.53046   0.00000   0.00000  -0.00000  -0.00000   2.53046
    R2        5.88380  -0.00000   0.00000  -0.00007  -0.00007   5.88373
    R3        5.88380   0.00000   0.00000  -0.00007  -0.00007   5.88373
    R4        2.53137   0.00000   0.00000   0.00000   0.00000   2.53137
    R5        5.72653   0.00000   0.00000  -0.00019  -0.00019   5.72633
    R6        2.53149   0.00000   0.00000   0.00000   0.00000   2.53149
    R7        2.53149   0.00000   0.00000   0.00000   0.00000   2.53149
    A1        0.63108   0.00000   0.00000   0.00001   0.00001   0.63109
    A2        1.84237  -0.00000   0.00000   0.00022   0.00022   1.84259
    A3        1.84237  -0.00000   0.00000   0.00022   0.00022   1.84259
    A4        2.16702  -0.00000   0.00000   0.00024   0.00024   2.16726
    A5        1.62435   0.00000   0.00000  -0.00000  -0.00000   1.62435
    A6        1.61132   0.00000   0.00000   0.00000   0.00000   1.61132
    D1       -2.81361   0.00000   0.00000   0.00003   0.00002  -2.81358
    D2        2.81361  -0.00000   0.00000  -0.00002  -0.00002   2.81358
    D3        3.14159  -0.00000   0.00000   0.00000   0.00000   3.14159
    D4       -1.40333   0.00000   0.00000  -0.00005  -0.00005  -1.40338
         Item               Value     Threshold  Converged?
 Maximum Force            0.000000     0.000450     YES
 RMS     Force            0.000000     0.000300     YES
 Maximum Displacement     0.000348     0.001800     YES
 RMS     Displacement     0.000139     0.001200     YES
 Predicted change in Energy= 4.918135D-11
 Optimization completed.
    -- Stationary point found.
                           ----------------------------
                           !   Optimized Parameters   !
                           ! (Angstroms and Degrees)  !
 --------------------------                            --------------------------
 ! Name  Definition              Value          Derivative Info.                !
 --------------------------------------------------------------------------------
 ! R1    R(1,5)                  1.3391         -DE/DX =    0.0                 !
 ! R2    R(2,3)                  3.1136         -DE/DX =    0.0                 !
 ! R3    R(2,4)                  3.1136         -DE/DX =    0.0                 !
 ! R4    R(2,5)                  1.3395         -DE/DX =    0.0                 !
 ! R5    R(2,6)                  3.0303         -DE/DX =    0.0                 !
 ! R6    R(3,6)                  1.3396         -DE/DX =    0.0                 !
 ! R7    R(4,6)                  1.3396         -DE/DX =    0.0                 !
 ! A1    A(3,2,4)               36.1585         -DE/DX =    0.0                 !
 ! A2    A(3,2,5)              105.5599         -DE/DX =    0.0                 !
 ! A3    A(4,2,5)              105.5599         -DE/DX =    0.0                 !
 ! A4    A(5,2,6)              124.161          -DE/DX =    0.0                 !
 ! A5    A(1,5,2)               93.0684         -DE/DX =    0.0                 !
 ! A6    A(3,6,4)               92.3219         -DE/DX =    0.0                 !
 ! D1    D(3,2,5,1)           -161.2077         -DE/DX =    0.0                 !
 ! D2    D(4,2,5,1)            161.2077         -DE/DX =    0.0                 !
 ! D3    D(6,2,5,1)            180.0            -DE/DX =    0.0                 !
 ! D4    D(4,3,6,2)            -80.4049         -DE/DX =    0.0                 !
 --------------------------------------------------------------------------------
 Largest change from initial coordinates is atom    4       0.006 Angstoms.
 GradGradGradGradGradGradGradGradGradGradGradGradGradGradGradGradGradGrad

 Leave Link  103 at Fri Jan  3 11:24:25 2025, MaxMem=   104857600 cpu:               0.0 elap:               0.0
 (Enter /opt/g16/l202.exe)
                          Input orientation:                          
 ---------------------------------------------------------------------
 Center     Atomic      Atomic             Coordinates (Angstroms)
 Number     Number       Type             X           Y           Z
 ---------------------------------------------------------------------
      1          1           0       -0.943118    2.898526    0.000000
      2          1           0       -0.838228    0.957266    0.000000
      3          1           0        0.784494   -1.518111    0.966241
      4          1           0        0.784494   -1.518111   -0.966241
      5         16           0        0.029301    1.977937    0.000000
      6         16           0       -0.029634   -1.963210    0.000000
 ---------------------------------------------------------------------
                    Distance matrix (angstroms):
                    1          2          3          4          5
     1  H    0.000000
     2  H    1.944091   0.000000
     3  H    4.839933   3.113574   0.000000
     4  H    4.839933   3.113574   1.932482   0.000000
     5  S    1.339061   1.339543   3.704901   3.704901   0.000000
     6  S    4.946810   3.030348   1.339604   1.339604   3.941589
                    6
     6  S    0.000000
 Stoichiometry    H4S2
 Framework group  CS[SG(H2S2),X(H2)]
 Deg. of freedom     8
 Full point group                 CS      NOp   2
 RotChk:  IX=0 Diff= 3.14D-16
 Largest Abelian subgroup         CS      NOp   2
 Largest concise Abelian subgroup CS      NOp   2
                         Standard orientation:                         
 ---------------------------------------------------------------------
 Center     Atomic      Atomic             Coordinates (Angstroms)
 Number     Number       Type             X           Y           Z
 ---------------------------------------------------------------------
      1          1           0       -0.979868    2.854882    0.000000
      2          1           0       -0.845963    0.915408    0.000000
      3          1           0        0.813590   -1.535429    0.966241
      4          1           0        0.813590   -1.535429   -0.966241
      5         16           0        0.006208    1.948937    0.000000
      6         16           0        0.006208   -1.992652    0.000000
 ---------------------------------------------------------------------
 Rotational constants (GHZ):         106.1223698           1.9127089           1.9055078
 Leave Link  202 at Fri Jan  3 11:24:25 2025, MaxMem=   104857600 cpu:               0.0 elap:               0.0
 (Enter /opt/g16/l601.exe)
 Leave Link  601 at Fri Jan  3 11:24:25 2025, MaxMem=   104857600 cpu:               0.0 elap:               0.0
 (Enter /opt/g16/l716.exe)
 Rotating derivatives to standard orientation.
 Dipole        = 0.00000000D+00 0.00000000D+00 0.00000000D+00
 Full mass-weighted force constant matrix:
 Low frequencies ---  -55.5617  -28.2037   -4.3987   -0.1047   -0.0400    0.1526
 Low frequencies ---    1.2172   24.2087   55.2082
 ******    1 imaginary frequencies (negative Signs) ****** 
 Diagonal vibrational polarizability:
        0.0000000       0.0000000       0.0000000
 Harmonic frequencies (cm**-1), IR intensities (KM/Mole), Raman scattering
 activities (A**4/AMU), depolarization ratios for plane and unpolarized
 incident light, reduced masses (AMU), force constants (mDyne/A),
 and normal coordinates:
                      1                      2                      3
                     A'                     A"                     A"
 Frequencies --    -55.5214                22.8746                53.7972
 Red. masses --      1.5333                 1.0129                 1.0560
 Frc consts  --      0.0028                 0.0003                 0.0018
 IR Inten    --      0.0000                 0.0000                 0.0000
  Atom  AN      X      Y      Z        X      Y      Z        X      Y      Z
     1   1    -0.47  -0.41   0.00     0.00   0.00   0.66     0.00   0.00   0.53
     2   1     0.55  -0.34   0.00    -0.00   0.00  -0.25    -0.00   0.00   0.38
     3   1     0.10  -0.28   0.00    -0.23   0.44  -0.01    -0.17  -0.39   0.32
     4   1     0.10  -0.28  -0.00     0.23  -0.44  -0.01     0.17   0.39   0.32
     5  16     0.01   0.11  -0.00    -0.00   0.00  -0.01    -0.00  -0.00  -0.04
     6  16    -0.02  -0.07  -0.00     0.00  -0.00   0.00     0.00   0.00  -0.01
                      4                      5                      6
                     A'                     A'                     A"
 Frequencies --     82.3349               107.9208               222.3257
 Red. masses --      2.3559                 1.1009                 1.0142
 Frc consts  --      0.0094                 0.0076                 0.0295
 IR Inten    --      0.0000                 0.0000                 0.0000
  Atom  AN      X      Y      Z        X      Y      Z        X      Y      Z
     1   1    -0.38  -0.56   0.00    -0.12  -0.13   0.00    -0.00  -0.00  -0.27
     2   1     0.47  -0.51  -0.00     0.16  -0.10  -0.00     0.00  -0.00   0.80
     3   1     0.02   0.09   0.00    -0.35   0.59  -0.00    -0.21   0.32   0.01
     4   1     0.02   0.09  -0.00    -0.35   0.59   0.00     0.21  -0.32   0.01
     5  16     0.01  -0.13   0.00     0.01   0.02  -0.00     0.00  -0.00  -0.00
     6  16    -0.02   0.16   0.00     0.01  -0.05  -0.00     0.00  -0.00  -0.01
                      7                      8                      9
                     A'                     A'                     A'
 Frequencies --   1203.9512              1209.0714              2714.6791
 Red. masses --      1.0395                 1.0394                 1.0356
 Frc consts  --      0.8878                 0.8953                 4.4965
 IR Inten    --      0.0000                 0.0000                 0.0000
  Atom  AN      X      Y      Z        X      Y      Z        X      Y      Z
     1   1     0.47   0.51  -0.00     0.10   0.11  -0.00    -0.15   0.14  -0.00
     2   1     0.53  -0.45   0.00     0.11  -0.09  -0.00    -0.15  -0.18   0.00
     3   1     0.09   0.05  -0.10    -0.43  -0.24   0.48     0.39   0.22   0.50
     4   1     0.09   0.05   0.10    -0.43  -0.24  -0.48     0.39   0.22  -0.50
     5  16    -0.03  -0.00  -0.00    -0.01  -0.00   0.00     0.01   0.00  -0.00
     6  16    -0.01  -0.00  -0.00     0.03   0.02   0.00    -0.02  -0.01   0.00
                     10                     11                     12
                     A'                     A"                     A'
 Frequencies --   2717.0587              2730.6795              2732.9920
 Red. masses --      1.0356                 1.0398                 1.0399
 Frc consts  --      4.5044                 4.5681                 4.5765
 IR Inten    --      0.0000                 0.0000                 0.0000
  Atom  AN      X      Y      Z        X      Y      Z        X      Y      Z
     1   1     0.45  -0.44  -0.00    -0.00   0.00   0.00     0.55  -0.51   0.00
     2   1     0.44   0.56  -0.00     0.00   0.00  -0.00    -0.43  -0.51  -0.00
     3   1     0.13   0.07   0.16     0.43   0.24   0.51    -0.00  -0.00  -0.00
     4   1     0.13   0.07  -0.16    -0.43  -0.24   0.51    -0.00  -0.00   0.00
     5  16    -0.03  -0.00   0.00     0.00  -0.00  -0.00    -0.00   0.03  -0.00
     6  16    -0.01  -0.00  -0.00     0.00   0.00  -0.03     0.00   0.00  -0.00

 -------------------
 - Thermochemistry -
 -------------------
 Temperature   298.150 Kelvin.  Pressure   1.00000 Atm.
 Atom     1 has atomic number  1 and mass   1.00783
 Atom     2 has atomic number  1 and mass   1.00783
 Atom     3 has atomic number  1 and mass   1.00783
 Atom     4 has atomic number  1 and mass   1.00783
 Atom     5 has atomic number 16 and mass  31.97207
 Atom     6 has atomic number 16 and mass  31.97207
 Molecular mass:    67.97544 amu.
 Principal axes and moments of inertia in atomic units:
                           1         2         3
     Eigenvalues --    17.00623 943.55246 947.11824
           X           -0.02361   0.99972   0.00000
           Y            0.99972   0.02361   0.00000
           Z            0.00000   0.00000   1.00000
 This molecule is an asymmetric top.
 Rotational symmetry number  1.
 Rotational temperatures (Kelvin)      5.09307     0.09180     0.09145
 Rotational constants (GHZ):         106.12237     1.91271     1.90551
    1 imaginary frequencies ignored.
 Zero-point vibrational energy      82528.5 (Joules/Mol)
                                   19.72478 (Kcal/Mol)
 Warning -- explicit consideration of   5 degrees of freedom as
           vibrations may cause significant error
 Vibrational temperatures:     32.91    77.40   118.46   155.27   319.88
          (Kelvin)           1732.22  1739.58  3905.82  3909.24  3928.84
                             3932.17
 
 Zero-point correction=                           0.031433 (Hartree/Particle)
 Thermal correction to Energy=                    0.038034
 Thermal correction to Enthalpy=                  0.038978
 Thermal correction to Gibbs Free Energy=        -0.000459
 Sum of electronic and zero-point Energies=           -797.888638
 Sum of electronic and thermal Energies=              -797.882037
 Sum of electronic and thermal Enthalpies=            -797.881093
 Sum of electronic and thermal Free Energies=         -797.920530
 
                     E (Thermal)             CV                S
                      KCal/Mol        Cal/Mol-Kelvin    Cal/Mol-Kelvin
 Total                   23.867             16.038             83.003
 Electronic               0.000              0.000              0.000
 Translational            0.889              2.981             38.567
 Rotational               0.889              2.981             24.234
 Vibrational             22.089             10.076             20.201
 Vibration     1          0.593              1.985              6.368
 Vibration     2          0.596              1.976              4.673
 Vibration     3          0.600              1.961              3.834
 Vibration     4          0.606              1.943              3.306
 Vibration     5          0.648              1.807              1.940
                       Q            Log10(Q)             Ln(Q)
 Total Bot       0.162631D+01          0.211204          0.486315
 Total V=0       0.467272D+15         14.669570         33.777932
 Vib (Bot)       0.167297D-11        -11.776513        -27.116423
 Vib (Bot)    1  0.905458D+01          0.956868          2.203270
 Vib (Bot)    2  0.384117D+01          0.584463          1.345776
 Vib (Bot)    3  0.250037D+01          0.398004          0.916439
 Vib (Bot)    4  0.189862D+01          0.278439          0.641130
 Vib (Bot)    5  0.888830D+00         -0.051181         -0.117849
 Vib (V=0)       0.480677D+03          2.681853          6.175195
 Vib (V=0)    1  0.956837D+01          0.980838          2.258463
 Vib (V=0)    2  0.437357D+01          0.640836          1.475580
 Vib (V=0)    3  0.304987D+01          0.484282          1.115100
 Vib (V=0)    4  0.246336D+01          0.391528          0.901526
 Vib (V=0)    5  0.151981D+01          0.181790          0.418587
 Electronic      0.100000D+01          0.000000          0.000000
 Translational   0.220283D+08          7.342982         16.907841
 Rotational      0.441301D+05          4.644735         10.694897
 ***** Axes restored to original set *****
 -------------------------------------------------------------------
 Center     Atomic                   Forces (Hartrees/Bohr)
 Number     Number              X              Y              Z
 -------------------------------------------------------------------
      1        1           0.000001221    0.000000477    0.000000000
      2        1           0.000000462    0.000000369    0.000000000
      3        1          -0.000000167   -0.000000129    0.000000057
      4        1          -0.000000167   -0.000000129   -0.000000056
      5       16           0.000000964   -0.000000034   -0.000000000
      6       16          -0.000000289    0.000000062    0.000000000
 -------------------------------------------------------------------
 Cartesian Forces:  Max     0.000001221 RMS     0.000000420
 Force constants in Cartesian coordinates: 
                1             2             3             4             5 
      1  0.153918D+00
      2 -0.124057D+00  0.147752D+00
      3  0.000000D+00  0.000000D+00  0.185122D-03
      4  0.101239D-01  0.159154D-01  0.000000D+00  0.128805D+00
      5 -0.122879D-01 -0.153717D-01  0.000000D+00  0.121836D+00  0.172673D+00
      6  0.000000D+00  0.000000D+00 -0.371348D-03  0.000000D+00  0.000000D+00
      7 -0.509167D-04 -0.168272D-03  0.918745D-04 -0.340790D-03  0.367003D-04
      8  0.491628D-05  0.804124D-04 -0.177449D-03  0.349512D-03  0.174806D-03
      9  0.122278D-05 -0.554488D-04  0.162417D-04 -0.303418D-04  0.146973D-03
     10 -0.509173D-04 -0.168272D-03 -0.918742D-04 -0.340790D-03  0.367002D-04
     11  0.491678D-05  0.804133D-04  0.177449D-03  0.349512D-03  0.174805D-03
     12 -0.122325D-05  0.554492D-04  0.162431D-04  0.303399D-04 -0.146975D-03
     13 -0.164052D+00  0.108241D+00  0.000000D+00 -0.138441D+00 -0.109279D+00
     14  0.136800D+00 -0.131555D+00  0.000000D+00 -0.137334D+00 -0.156682D+00
     15  0.000000D+00  0.000000D+00 -0.403666D-04  0.000000D+00  0.000000D+00
     16  0.109784D-03  0.239282D-03  0.000000D+00  0.192177D-03 -0.344240D-03
     17 -0.465221D-03 -0.986215D-03  0.000000D+00 -0.111595D-02 -0.969101D-03
     18  0.000000D+00  0.000000D+00  0.192825D-03  0.000000D+00  0.000000D+00
                6             7             8             9            10 
      6  0.121822D-02
      7 -0.365164D-03  0.109451D+00
      8  0.434360D-03  0.593393D-01  0.327758D-01
      9 -0.387054D-04  0.108262D+00  0.590356D-01  0.159582D+00
     10  0.365164D-03  0.748038D-02  0.411751D-02 -0.125533D-01  0.109451D+00
     11 -0.434360D-03  0.411750D-02  0.214102D-02 -0.674653D-02  0.593393D-01
     12 -0.387055D-04  0.125533D-01  0.674653D-02 -0.162493D-01 -0.108262D+00
     13  0.000000D+00  0.248292D-03 -0.273036D-03  0.000000D+00  0.248293D-03
     14  0.000000D+00  0.105233D-03 -0.117746D-03  0.100055D-04  0.105233D-03
     15 -0.230565D-03  0.564904D-04 -0.198414D-04 -0.525767D-04 -0.564884D-04
     16  0.000000D+00 -0.116787D+00 -0.635396D-01 -0.956800D-01 -0.116787D+00
     17  0.000000D+00 -0.634288D-01 -0.350531D-01 -0.523916D-01 -0.634288D-01
     18 -0.540300D-03 -0.120598D+00 -0.660191D-01 -0.143257D+00  0.120598D+00
               11            12            13            14            15 
     11  0.327758D-01
     12 -0.590356D-01  0.159582D+00
     13 -0.273037D-03  0.000000D+00  0.302122D+00
     14 -0.117748D-03 -0.100068D-04 -0.708645D-04  0.289350D+00
     15  0.198417D-04 -0.525752D-04  0.000000D+00  0.000000D+00  0.226786D-03
     16 -0.635396D-01  0.956800D-01 -0.122449D-03  0.394886D-03  0.000000D+00
     17 -0.350531D-01  0.523916D-01  0.165592D-02 -0.877579D-03  0.000000D+00
     18  0.660191D-01 -0.143257D+00  0.000000D+00  0.000000D+00  0.151925D-03
               16            17            18 
     16  0.233392D+00
     17  0.126786D+00  0.729375D-01
     18  0.000000D+00  0.000000D+00  0.286709D+00
 Red2BG is reusing G-inverse.
 Force constants in internal coordinates: 
                1             2             3             4             5 
      1  0.274875D+00
      2 -0.875855D-04  0.683941D-03
      3 -0.360489D-04  0.191331D-03  0.151620D-02
      4 -0.841424D-03  0.233609D-03  0.292172D-03  0.274003D+00
      5  0.302504D-03 -0.620436D-03 -0.699211D-03  0.736498D-03  0.302717D-02
      6 -0.148882D-04  0.322026D-02  0.141015D-02 -0.140242D-03  0.101956D-02
      7 -0.286585D-04  0.223307D-02  0.110269D-01 -0.155890D-03 -0.719557D-02
      8 -0.471150D-05  0.162700D-02  0.412758D-02 -0.644939D-04 -0.256480D-02
      9  0.168262D-03 -0.644117D-03  0.776689D-03 -0.370500D-03  0.495761D-03
     10  0.170527D-03  0.370089D-03 -0.783413D-03 -0.367925D-03  0.103427D-02
     11  0.167512D-03 -0.195070D-03 -0.329671D-03 -0.447556D-03  0.111485D-02
     12  0.938060D-02 -0.334511D-03  0.224152D-04  0.934889D-02  0.233750D-02
     13 -0.189979D-04  0.310169D-02  0.835294D-02  0.914187D-05 -0.587463D-02
     14  0.144742D-04  0.841890D-03  0.187638D-02 -0.675964D-04 -0.100338D-02
     15 -0.127151D-04 -0.828060D-03 -0.242540D-02  0.695953D-04  0.152509D-02
     16 -0.175997D-05  0.535697D-03  0.738642D-04 -0.199962D-05 -0.590901D-03
     17  0.132788D-03  0.458181D-03  0.177607D-02  0.150891D-03 -0.286615D-03
                6             7             8             9            10 
      6  0.255937D+00
      7 -0.935100D-02  0.252128D+00
      8  0.283746D-01  0.261352D-01  0.178169D-01
      9 -0.175586D-01  0.296177D-02 -0.243667D-03  0.296084D-02
     10  0.333178D-02 -0.174936D-01 -0.303132D-04 -0.162849D-02  0.298797D-02
     11  0.111170D-01  0.115231D-01 -0.140634D-02 -0.109888D-02 -0.112915D-02
     12 -0.353659D-04 -0.130737D-03 -0.174171D-04  0.119269D-02  0.120838D-02
     13 -0.101029D-01 -0.141523D-01  0.354305D-01  0.525081D-02  0.565586D-02
     14  0.224707D-01  0.475730D-02  0.936550D-02 -0.223788D-03  0.220519D-03
     15 -0.575783D-02 -0.211081D-01 -0.918010D-02 -0.960396D-04  0.123306D-03
     16 -0.169238D-01  0.165454D-01 -0.198598D-03 -0.171530D-03  0.145567D-03
     17 -0.107269D-02  0.190468D-01  0.642687D-02  0.987753D-03 -0.301410D-03
               11            12            13            14            15 
     11  0.237644D-02
     12  0.117017D-02  0.171655D+00
     13 -0.138925D-01 -0.424686D-04  0.125028D+00
     14 -0.852588D-03  0.110767D-03  0.191562D-01  0.570681D-02
     15  0.824429D-03 -0.985808D-04 -0.188085D-01 -0.405509D-02  0.551128D-02
     16  0.312672D-04 -0.121868D-04 -0.369971D-03 -0.152112D-02 -0.131165D-02
     17 -0.343043D-03  0.919642D-03  0.135031D-01  0.275285D-02 -0.401128D-02
               16            17 
     16  0.370281D-02
     17  0.143042D-02  0.360349D-02
 Leave Link  716 at Fri Jan  3 11:24:25 2025, MaxMem=   104857600 cpu:               0.0 elap:               0.0
 (Enter /opt/g16/l9999.exe)
 Unable to Open any file for archive entry.
 1\1\GINC-GPUNODE01\Freq\External='python3 -u ../pes/h4s2_pes.py'\ZDO\H
 4S2\JHLI\03-Jan-2025\0\\#p external="python3 -u ../pes/h4s2_pes.py" op
 t=(nomicro,calcall,ts,noeigen)\\ts-1\\0,1\H,-0.9431184801,2.8985256977
 ,0.\H,-0.8382276209,0.9572662117,0.\H,0.7844941259,-1.5181112556,0.966
 240787\H,0.7844941259,-1.5181112556,-0.966240787\S,0.0293013708,1.9779
 374247,0.\S,-0.0296341592,-1.9632104488,0.\\Version=ES64L-G16RevC.01\H
 F=-797.9200712\RMSD=0.000e+00\RMSF=4.205e-07\ZeroPoint=0.0314334\Therm
 al=0.0380338\ETot=-797.8820374\HTot=-797.8810932\GTot=-797.9205304\Dip
 ole=0.,0.,0.\PG=CS [SG(H2S2),X(H2)]\NImag=1\\0.15391832,-0.12405721,0.
 14775229,0.,0.,0.00018512,0.01012394,0.01591540,0.,0.12880543,-0.01228
 790,-0.01537173,0.,0.12183608,0.17267264,0.,0.,-0.00037135,0.,0.,0.001
 21822,-0.00005092,-0.00016827,0.00009187,-0.00034079,0.00003670,-0.000
 36516,0.10945111,0.00000492,0.00008041,-0.00017745,0.00034951,0.000174
 81,0.00043436,0.05933928,0.03277585,0.00000122,-0.00005545,0.00001624,
 -0.00003034,0.00014697,-0.00003871,0.10826166,0.05903558,0.15958157,-0
 .00005092,-0.00016827,-0.00009187,-0.00034079,0.00003670,0.00036516,0.
 00748038,0.00411751,-0.01255332,0.10945111,0.00000492,0.00008041,0.000
 17745,0.00034951,0.00017481,-0.00043436,0.00411750,0.00214102,-0.00674
 653,0.05933928,0.03277584,-0.00000122,0.00005545,0.00001624,0.00003034
 ,-0.00014697,-0.00003871,0.01255332,0.00674653,-0.01624926,-0.10826166
 ,-0.05903558,0.15958157,-0.16405179,0.10824050,0.,-0.13844120,-0.10927
 912,0.,0.00024829,-0.00027304,-0.00000061,0.00024829,-0.00027304,0.000
 00061,0.30212163,0.13680021,-0.13155508,0.,-0.13733443,-0.15668184,0.,
 0.00010523,-0.00011775,0.00001001,0.00010523,-0.00011775,-0.00001001,-
 0.00007086,0.28934953,0.,0.,-0.00004037,0.,0.,-0.00023057,0.00005649,-
 0.00001984,-0.00005258,-0.00005649,0.00001984,-0.00005258,0.,0.,0.0002
 2679,0.00010978,0.00023928,0.,0.00019218,-0.00034424,0.,-0.11678686,-0
 .06353964,-0.09567999,-0.11678686,-0.06353964,0.09567999,-0.00012245,0
 .00039489,0.,0.23339181,-0.00046522,-0.00098622,0.,-0.00111595,-0.0009
 6910,0.,-0.06342880,-0.03505313,-0.05239164,-0.06342880,-0.03505313,0.
 05239164,0.00165592,-0.00087758,0.,0.12678586,0.07293753,0.,0.,0.00019
 282,0.,0.,-0.00054030,-0.12059797,-0.06601913,-0.14325701,0.12059797,0
 .06601913,-0.14325701,0.,0.,0.00015193,0.,0.,0.28670911\\-0.00000122,-
 0.00000048,0.,-0.00000046,-0.00000037,0.,0.00000017,0.00000013,-0.0000
 0006,0.00000017,0.00000013,0.00000006,-0.00000096,0.00000003,0.,0.0000
 0029,-0.00000006,0.\\\@
 The archive entry for this job was punched.


 NOBODY LOSES ALL THE TIME
 I HAD AN UNCLE NAMED
 SOL WHO WAS A BORN FAILURE AND
 NEARLY EVERYBODY SAID HE SHOULD HAVE GONE
 INTO VAUDEVILLE PERHAPS BECAUSE MY UNCLE SOL COULD
 SING MCCANN HE WAS A DIVER ON XMAS EVE LIKE HELL ITSELF WHICH
 MAY OR MAY NOT ACCOUNT FOR THE FACT THAT MY UNCLE
 SOL INDULGED IN THAT POSSIBLY MOST INEXCUSABLE
 OF ALL TO USE A HIGHFALOOTIN PHRASE
 LUXURIES THAT IS OR TO
 WIT FARMING AND BE
 IT NEEDLESSLY
 ADDED
 MY UNCLE SOL'S FARM     
 FAILED BECAUSE THE CHICKENS
 ATE THE VEGETABLES SO
 MY UNCLE SOL HAD A
 CHICKEN FARM TILL THE
 SKUNKS ATE THE CHICKENS WHEN 
 MY UNCLE SOL
 HAD A SKUNK FARM BUT
 THE SKUNKS CAUGHT COLD AND
 DIED AND SO
 MY UNCLE SOL IMITATED THE
 SKUNKS IN A SUBTLE MANNER
 OR BY DROWNING HIMSELF IN THE WATERTANK
 BUT SOMEBODY WHO'D GIVEN MY UNCLE SOL A VICTOR     
 VICTROLA AND RECORDS WHILE HE LIVED PRESENTED TO
 HIM UPON THE AUSPICIOUS OCCASION OF HIS DECEASE A
 SCRUMPTIOUS NOT TO MENTION SPLENDIFEROUS FUNERAL WITH
 TALL BOYS IN BLACK GLOVES AND FLOWERS AND EVERYTHING AND
 I REMEMBER WE ALL CRIED LIKE THE MISSOURI
 WHEN MY UNCLE SOL'S COFFIN LURCHED BECAUSE     
 SOMEBODY PRESSED A BUTTON
 (AND DOWN WENT
 MY UNCLE
 SOL
 AND STARTED A WORM FARM)
           E. E. CUMMINGS
 Job cpu time:       0 days  0 hours  0 minutes  0.3 seconds.
 Elapsed time:       0 days  0 hours  0 minutes  0.9 seconds.
 File lengths (MBytes):  RWF=      6 Int=      0 D2E=      0 Chk=      1 Scr=      1
 Normal termination of Gaussian 16 at Fri Jan  3 11:24:25 2025.
