 Entering Gaussian System, Link 0=g16
 Initial command:
 /opt/g16/l1.exe "/home/jhli/scratch/g16/Gau-121892.inp" -scrdir="/home/jhli/scratch/g16/"
 Entering Link 1 = /opt/g16/l1.exe PID=    121895.
  
 Copyright (c) 1988-2019, Gaussian, Inc.  All Rights Reserved.
  
 This is part of the Gaussian(R) 16 program.  It is based on
 the Gaussian(R) 09 system (copyright 2009, Gaussian, Inc.),
 the Gaussian(R) 03 system (copyright 2003, Gaussian, Inc.),
 the Gaussian(R) 98 system (copyright 1998, Gaussian, Inc.),
 the Gaussian(R) 94 system (copyright 1995, Gaussian, Inc.),
 the Gaussian 92(TM) system (copyright 1992, Gaussian, Inc.),
 the Gaussian 90(TM) system (copyright 1990, Gaussian, Inc.),
 the Gaussian 88(TM) system (copyright 1988, Gaussian, Inc.),
 the Gaussian 86(TM) system (copyright 1986, Carnegie Mellon
 University), and the Gaussian 82(TM) system (copyright 1983,
 Carnegie Mellon University). Gaussian is a federally registered
 trademark of Gaussian, Inc.
  
 This software contains proprietary and confidential information,
 including trade secrets, belonging to Gaussian, Inc.
  
 This software is provided under written license and may be
 used, copied, transmitted, or stored only in accord with that
 written license.
  
 The following legend is applicable only to US Government
 contracts under FAR:
  
                    RESTRICTED RIGHTS LEGEND
  
 Use, reproduction and disclosure by the US Government is
 subject to restrictions as set forth in subparagraphs (a)
 and (c) of the Commercial Computer Software - Restricted
 Rights clause in FAR 52.227-19.
  
 Gaussian, Inc.
 340 Quinnipiac St., Bldg. 40, Wallingford CT 06492
  
  
 ---------------------------------------------------------------
 Warning -- This program may not be used in any manner that
 competes with the business of Gaussian, Inc. or will provide
 assistance to any competitor of Gaussian, Inc.  The licensee
 of this program is prohibited from giving any competitor of
 Gaussian, Inc. access to this program.  By using this program,
 the user acknowledges that Gaussian, Inc. is engaged in the
 business of creating and licensing software in the field of
 computational chemistry and represents and warrants to the
 licensee that it is not a competitor of Gaussian, Inc. and that
 it will not use this program in any manner prohibited above.
 ---------------------------------------------------------------
  

 Cite this work as:
 Gaussian 16, Revision C.01,
 M. J. Frisch, G. W. Trucks, H. B. Schlegel, G. E. Scuseria, 
 M. A. Robb, J. R. Cheeseman, G. Scalmani, V. Barone, 
 G. A. Petersson, H. Nakatsuji, X. Li, M. Caricato, A. V. Marenich, 
 J. Bloino, B. G. Janesko, R. Gomperts, B. Mennucci, H. P. Hratchian, 
 J. V. Ortiz, A. F. Izmaylov, J. L. Sonnenberg, D. Williams-Young, 
 F. Ding, F. Lipparini, F. Egidi, J. Goings, B. Peng, A. Petrone, 
 T. Henderson, D. Ranasinghe, V. G. Zakrzewski, J. Gao, N. Rega, 
 G. Zheng, W. Liang, M. Hada, M. Ehara, K. Toyota, R. Fukuda, 
 J. Hasegawa, M. Ishida, T. Nakajima, Y. Honda, O. Kitao, H. Nakai, 
 T. Vreven, K. Throssell, J. A. Montgomery, Jr., J. E. Peralta, 
 F. Ogliaro, M. J. Bearpark, J. J. Heyd, E. N. Brothers, K. N. Kudin, 
 V. N. Staroverov, T. A. Keith, R. Kobayashi, J. Normand, 
 K. Raghavachari, A. P. Rendell, J. C. Burant, S. S. Iyengar, 
 J. Tomasi, M. Cossi, J. M. Millam, M. Klene, C. Adamo, R. Cammi, 
 J. W. Ochterski, R. L. Martin, K. Morokuma, O. Farkas, 
 J. B. Foresman, and D. J. Fox, Gaussian, Inc., Wallingford CT, 2019.
 
 ******************************************
 Gaussian 16:  ES64L-G16RevC.01  3-Jul-2019
                 3-Jan-2025 
 ******************************************
 %nproc=1
 Will use up to    1 processors via shared memory.
 %oldchk=ts-3-opt-freq.chk
 Copying data from "ts-3-opt-freq.chk" to current chk file "/home/jhli/scratch/g16/Gau-121895.chk"
 IOpt=  2 FromEx=T IUOpen= 4 IOptOp= 5 NList=   0 IFRang= 0 IUIn= 4 IUOut= 2.
 ----------------------------------------------------------------------
 #p external="python3 -u ../pes/h4s2_pes.py" irc=(calcall,stepsize=10,m
 axpoint=100,lqa) geom=allcheck
 ----------------------------------------------------------------------
 1/10=4,18=10,26=1,29=7,38=1,39=10,42=100,44=3,45=2,71=1,172=1/1,23;
 2/12=2,29=1,40=1/2;
 3/11=9,14=-4,25=1,30=1,41=9900000,43=2,71=2,140=1/1;
 4/20=17,22=2,24=3,113=1,114=1/2;
 6/7=2,8=2,9=2,10=2,18=1/1;
 7/25=1,44=-1/16;
 1/10=4,18=10,26=1,39=10,42=100,44=3,45=2,71=1/23(2);
 2/29=1/2;
 99/5=20/99;
 2/29=1/2;
 3/11=9,14=-2,25=1,30=1,41=9900000,43=2,71=2,140=1/1;
 4/16=2,20=17,22=2,24=3,113=1,114=1/2;
 7/25=1,44=-1/16;
 1/10=4,18=10,26=1,39=10,42=100,44=3,45=2,71=1/23(-4);
 2/29=1/2;
 6/7=2,8=2,9=2,10=2,18=1/1;
 99/5=20/99;
 Leave Link    1 at Fri Jan  3 11:38:51 2025, MaxMem=   104857600 cpu:               0.0 elap:               0.0
 (Enter /opt/g16/l101.exe)
 Structure from the checkpoint file:  "/home/jhli/scratch/g16/Gau-121895.chk"
 ----
 ts-3
 ----
 Charge =  0 Multiplicity = 1
 Redundant internal coordinates found in file.  (old form).
 H,0,-0.000004934,0.0000710449,0.7303120763
 H,0,0.0000035282,-0.0000727333,-0.7303107195
 H,0,-1.5631731164,-1.2541912345,0.0001149208
 H,0,1.5631718107,1.2541895741,-0.0001136308
 S,0,-1.5115406885,0.0872119062,-0.0000166805
 S,0,1.51153939,-0.0872135674,0.0000180337
 Recover connectivity data from disk.
 ITRead=  0  0  0  0  0  0
 MicOpt= -1 -1 -1 -1 -1 -1
 NAtoms=      6 NQM=        6 NQMF=       0 NMMI=      0 NMMIF=      0
                NMic=       0 NMicF=      0.
                    Isotopes and Nuclear Properties:
 (Nuclear quadrupole moments (NQMom) in fm**2, nuclear magnetic moments (NMagM)
  in nuclear magnetons)

  Atom         1           2           3           4           5           6
 IAtWgt=           1           1           1           1          32          32
 AtmWgt=   1.0078250   1.0078250   1.0078250   1.0078250  31.9720718  31.9720718
 NucSpn=           1           1           1           1           0           0
 AtZEff=   1.0000000   1.0000000   1.0000000   1.0000000  13.6000000  13.6000000
 NQMom=    0.0000000   0.0000000   0.0000000   0.0000000   0.0000000   0.0000000
 NMagM=    2.7928460   2.7928460   2.7928460   2.7928460   0.0000000   0.0000000
 AtZNuc=   1.0000000   1.0000000   1.0000000   1.0000000  16.0000000  16.0000000
 Leave Link  101 at Fri Jan  3 11:38:51 2025, MaxMem=   104857600 cpu:               0.1 elap:               0.1
 (Enter /opt/g16/l123.exe)
 IRC-IRC-IRC-IRC-IRC-IRC-IRC-IRC-IRC-IRC-IRC-IRC-IRC-IRC-IRC-IRC-IRC-IRC
 ------------------------------------------------------------------------
 INPUT DATA FOR L123
 ------------------------------------------------------------------------
 GENERAL PARAMETERS:
 Follow reaction path in both directions.
 Maximum points per path      = 100
 Step size                    =   0.100 bohr
 Integration scheme           = LQA                                 
 Initial Hessian              = CalcFC
 Hessian evaluation           = Analytic at all predictor steps
                              = Update at all corrector steps
 Hessian updating method      = Bofill                              
 ------------------------------------------------------------------------
 IRC-IRC-IRC-IRC-IRC-IRC-IRC-IRC-IRC-IRC-IRC-IRC-IRC-IRC-IRC-IRC-IRC-IRC
 Leave Link  123 at Fri Jan  3 11:38:51 2025, MaxMem=   104857600 cpu:               0.0 elap:               0.0
 (Enter /opt/g16/l202.exe)
                          Input orientation:                          
 ---------------------------------------------------------------------
 Center     Atomic      Atomic             Coordinates (Angstroms)
 Number     Number       Type             X           Y           Z
 ---------------------------------------------------------------------
      1          1           0       -0.000005    0.000071    0.730312
      2          1           0        0.000004   -0.000073   -0.730311
      3          1           0       -1.563173   -1.254191    0.000115
      4          1           0        1.563172    1.254190   -0.000114
      5         16           0       -1.511541    0.087212   -0.000017
      6         16           0        1.511539   -0.087214    0.000018
 ---------------------------------------------------------------------
                    Distance matrix (angstroms):
                    1          2          3          4          5
     1  H    0.000000
     2  H    1.460623   0.000000
     3  H    2.133039   2.133039   0.000000
     4  H    2.133039   2.133039   4.008242   0.000000
     5  S    1.680986   1.680986   1.342396   3.288722   0.000000
     6  S    1.680986   1.680986   3.288722   1.342396   3.028108
                    6
     6  S    0.000000
 Symmetry turned off by external request.
 Stoichiometry    H4S2
 Framework group  C1[X(H4S2)]
 Deg. of freedom    12
 Full point group                 C1      NOp   1
 Rotational constants (GHZ):         109.9584503           3.3197765           3.2672800
 Leave Link  202 at Fri Jan  3 11:38:51 2025, MaxMem=   104857600 cpu:               0.0 elap:               0.0
 (Enter /opt/g16/l301.exe)
 Standard basis: STO-3G (5D, 7F)
 Ernie: Thresh=  0.10000D-02 Tol=  0.10000D-05 Strict=F.
    22 basis functions,    66 primitive gaussians,    22 cartesian basis functions
    18 alpha electrons       18 beta electrons
       nuclear repulsion energy        84.1347867819 Hartrees.
 IExCor=    0 DFT=F Ex=HF Corr=None ExCW=0 ScaHFX=  1.000000
 ScaDFX=  1.000000  1.000000  1.000000  1.000000 ScalE2=  1.000000  1.000000
 IRadAn=      5 IRanWt=     -1 IRanGd=            0 ICorTp=0 IEmpDi=  4
 NAtoms=    6 NActive=    6 NUniq=    6 SFac= 1.00D+00 NAtFMM=   60 NAOKFM=F Big=F
 Integral buffers will be    131072 words long.
 Raffenetti 1 integral format.
 Two-electron integral symmetry is turned off.
 Leave Link  301 at Fri Jan  3 11:38:51 2025, MaxMem=   104857600 cpu:               0.0 elap:               0.0
 (Enter /opt/g16/l402.exe)
 External calculation of energy, first and second derivatives.
 Running external command "python3 -u ../pes/h4s2_pes.py R"
         input file       "/home/jhli/scratch/g16/Gau-121895.EIn"
         output file      "/home/jhli/scratch/g16/Gau-121895.EOu"
         message file     "/home/jhli/scratch/g16/Gau-121895.EMs"
         fchk file        "/home/jhli/scratch/g16/Gau-121895.EFC"
         mat. el file     "/home/jhli/scratch/g16/Gau-121895.EUF"
 initialization done
 Recovered energy= -797.842672726     dipole=      0.000000000000      0.000000000000      0.000000000000
 Energy=    -797.842673     NIter=   0.
 Dipole moment=       0.000000       0.000000       0.000000
 Leave Link  402 at Fri Jan  3 11:38:51 2025, MaxMem=   104857600 cpu:               0.0 elap:               0.2
 (Enter /opt/g16/l601.exe)
 Leave Link  601 at Fri Jan  3 11:38:51 2025, MaxMem=   104857600 cpu:               0.0 elap:               0.0
 (Enter /opt/g16/l716.exe)
 Dipole        = 0.00000000D+00 0.00000000D+00 0.00000000D+00
 -------------------------------------------------------------------
 Center     Atomic                   Forces (Hartrees/Bohr)
 Number     Number              X              Y              Z
 -------------------------------------------------------------------
      1        1           0.000000004   -0.000000002    0.000000015
      2        1           0.000000000    0.000000005   -0.000000015
      3        1           0.000000808   -0.000000682   -0.000000004
      4        1          -0.000000810    0.000000682    0.000000005
      5       16          -0.000000274   -0.000000826    0.000000004
      6       16           0.000000272    0.000000824   -0.000000004
 -------------------------------------------------------------------
 Cartesian Forces:  Max     0.000000826 RMS     0.000000456
 Force constants in Cartesian coordinates: 
                1             2             3             4             5 
      1 -0.747053D-01
      2  0.859725D-02  0.352306D-01
      3 -0.155668D-05  0.150757D-05  0.500363D-01
      4  0.944030D-01 -0.670410D-02  0.132197D-05 -0.747053D-01
      5 -0.670409D-02  0.622650D-02 -0.240717D-05  0.859725D-02  0.352305D-01
      6  0.131027D-05 -0.241473D-05 -0.178310D-01 -0.158111D-05  0.150415D-05
      7 -0.250242D-02 -0.809783D-02  0.305567D-02 -0.250240D-02 -0.809852D-02
      8  0.144946D-02 -0.207051D-02  0.228854D-02  0.144978D-02 -0.206934D-02
      9 -0.150506D-02 -0.811780D-02  0.574381D-03  0.150475D-02  0.811822D-02
     10 -0.250240D-02 -0.809853D-02 -0.305409D-02 -0.250242D-02 -0.809783D-02
     11  0.144979D-02 -0.206935D-02 -0.228802D-02  0.144946D-02 -0.207050D-02
     12  0.150474D-02  0.811823D-02  0.573221D-03 -0.150506D-02 -0.811780D-02
     13 -0.733836D-02  0.715093D-02 -0.249421D-01 -0.733814D-02  0.715587D-02
     14 -0.239314D-02 -0.186584D-01  0.160515D-02 -0.240148D-02 -0.186597D-01
     15  0.424236D-01  0.469777D-02 -0.166776D-01 -0.424230D-01 -0.469729D-02
     16 -0.733814D-02  0.715588D-02  0.249408D-01 -0.733835D-02  0.715093D-02
     17 -0.240148D-02 -0.186597D-01 -0.160478D-02 -0.239316D-02 -0.186584D-01
     18 -0.424230D-01 -0.469730D-02 -0.166766D-01  0.424235D-01  0.469777D-02
                6             7             8             9            10 
      6  0.500363D-01
      7 -0.305411D-02  0.120400D-01
      8 -0.228801D-02  0.935338D-02  0.272120D+00
      9  0.573215D-03  0.000000D+00 -0.257804D-04  0.914154D-02
     10  0.305567D-02  0.164137D-02  0.284892D-03  0.000000D+00  0.120400D-01
     11  0.228855D-02  0.284880D-03  0.131975D-02  0.000000D+00  0.935339D-02
     12  0.574387D-03  0.000000D+00  0.000000D+00  0.193473D-03  0.000000D+00
     13  0.249408D-01 -0.894456D-02 -0.126198D-01  0.123602D-05  0.268668D-03
     14 -0.160478D-02  0.315819D-02 -0.270544D+00  0.257055D-04  0.340223D-02
     15 -0.166766D-01  0.000000D+00  0.256178D-04 -0.913978D-02  0.000000D+00
     16 -0.249421D-01  0.268670D-03  0.812748D-04  0.000000D+00 -0.894455D-02
     17  0.160514D-02  0.340223D-02  0.124595D-02  0.000000D+00  0.315819D-02
     18 -0.166776D-01  0.000000D+00  0.000000D+00 -0.134127D-02  0.000000D+00
               11            12            13            14            15 
     11  0.272120D+00
     12 -0.258096D-04  0.914153D-02
     13  0.812712D-04  0.000000D+00  0.110193D+00
     14  0.124595D-02  0.000000D+00 -0.380889D-02  0.293913D+00
     15  0.000000D+00 -0.134128D-02  0.000000D+00 -0.283874D-04  0.544637D-02
     16 -0.126198D-01  0.124334D-05 -0.868578D-01  0.204051D-02  0.000000D+00
     17 -0.270544D+00  0.257231D-04  0.204052D-02  0.127011D-01  0.253180D-05
     18  0.256342D-04 -0.913979D-02  0.000000D+00  0.253562D-05  0.383886D-01
               16            17            18 
     16  0.110193D+00
     17 -0.380890D-02  0.293913D+00
     18  0.000000D+00 -0.283840D-04  0.544636D-02
 Leave Link  716 at Fri Jan  3 11:38:51 2025, MaxMem=   104857600 cpu:               0.0 elap:               0.0
 (Enter /opt/g16/l123.exe)
 IRC-IRC-IRC-IRC-IRC-IRC-IRC-IRC-IRC-IRC-IRC-IRC-IRC-IRC-IRC-IRC-IRC-IRC
          ******** Start new reaction path calculation ********
 Current Structure is TS -> form Hessian eigenvectors.
                            Diagonalizing Hessian.
 Supplied step size of   0.1000 bohr.
    Integration on MW PES will use step size of   0.1008 sqrt(amu)*bohr.
 Point Number:   0          Path Number:   1
 Calculating another point on the path.
 Point Number  1 in FORWARD path direction.
 Using LQA Reaction Path Following.
 IRC-IRC-IRC-IRC-IRC-IRC-IRC-IRC-IRC-IRC-IRC-IRC-IRC-IRC-IRC-IRC-IRC-IRC
 Leave Link  123 at Fri Jan  3 11:38:51 2025, MaxMem=   104857600 cpu:               0.0 elap:               0.0
 (Enter /opt/g16/l202.exe)
                          Input orientation:                          
 ---------------------------------------------------------------------
 Center     Atomic      Atomic             Coordinates (Angstroms)
 Number     Number       Type             X           Y           Z
 ---------------------------------------------------------------------
      1          1           0       -0.037312    0.002862    0.730311
      2          1           0        0.037312   -0.002862   -0.730311
      3          1           0       -1.563172   -1.254190   -0.000232
      4          1           0        1.563172    1.254190    0.000232
      5         16           0       -1.511540    0.087213    0.000562
      6         16           0        1.511540   -0.087213   -0.000562
 ---------------------------------------------------------------------
                    Distance matrix (angstroms):
                    1          2          3          4          5
     1  H    0.000000
     2  H    1.462538   0.000000
     3  H    2.107635   2.158793   0.000000
     4  H    2.158793   2.107635   4.008242   0.000000
     5  S    1.647117   1.715002   1.342397   3.288722   0.000000
     6  S    1.715002   1.647117   3.288722   1.342397   3.028108
                    6
     6  S    0.000000
 Symmetry turned off by external request.
 Stoichiometry    H4S2
 Framework group  C1[X(H4S2)]
 Deg. of freedom    12
 Full point group                 C1      NOp   1
 Rotational constants (GHZ):         109.9597284           3.3197149           3.2672185
 Leave Link  202 at Fri Jan  3 11:38:51 2025, MaxMem=   104857600 cpu:               0.0 elap:               0.0
 (Enter /opt/g16/l301.exe)
 Standard basis: STO-3G (5D, 7F)
 Ernie: Thresh=  0.10000D-02 Tol=  0.10000D-05 Strict=F.
    22 basis functions,    66 primitive gaussians,    22 cartesian basis functions
    18 alpha electrons       18 beta electrons
       nuclear repulsion energy        84.1417003110 Hartrees.
 IExCor=    0 DFT=F Ex=HF Corr=None ExCW=0 ScaHFX=  1.000000
 ScaDFX=  1.000000  1.000000  1.000000  1.000000 ScalE2=  1.000000  1.000000
 IRadAn=      5 IRanWt=     -1 IRanGd=            0 ICorTp=0 IEmpDi=  4
 NAtoms=    6 NActive=    6 NUniq=    6 SFac= 1.00D+00 NAtFMM=   60 NAOKFM=F Big=F
 Integral buffers will be    131072 words long.
 Raffenetti 1 integral format.
 Two-electron integral symmetry is turned off.
 Leave Link  301 at Fri Jan  3 11:38:51 2025, MaxMem=   104857600 cpu:               0.0 elap:               0.0
 (Enter /opt/g16/l402.exe)
 External calculation of energy, first and second derivatives.
 Running external command "python3 -u ../pes/h4s2_pes.py R"
         input file       "/home/jhli/scratch/g16/Gau-121895.EIn"
         output file      "/home/jhli/scratch/g16/Gau-121895.EOu"
         message file     "/home/jhli/scratch/g16/Gau-121895.EMs"
         fchk file        "/home/jhli/scratch/g16/Gau-121895.EFC"
         mat. el file     "/home/jhli/scratch/g16/Gau-121895.EUF"
 initialization done
 Recovered energy= -797.843531664     dipole=      0.000000000000      0.000000000000      0.000000000000
 Energy=    -797.843532     NIter=   0.
 Dipole moment=       0.000000       0.000000       0.000000
 Leave Link  402 at Fri Jan  3 11:38:52 2025, MaxMem=   104857600 cpu:               0.0 elap:               0.2
 (Enter /opt/g16/l716.exe)
 Dipole        = 0.00000000D+00 0.00000000D+00 0.00000000D+00
 -------------------------------------------------------------------
 Center     Atomic                   Forces (Hartrees/Bohr)
 Number     Number              X              Y              Z
 -------------------------------------------------------------------
      1        1          -0.011931557    0.000902094   -0.000237647
      2        1           0.011931561   -0.000902092    0.000237647
      3        1          -0.000020645   -0.000028335   -0.000116019
      4        1           0.000020643    0.000028335    0.000116020
      5       16           0.000138891    0.000002270    0.005892681
      6       16          -0.000138894   -0.000002271   -0.005892682
 -------------------------------------------------------------------
 Cartesian Forces:  Max     0.011931561 RMS     0.004447097
 Force constants in Cartesian coordinates: 
                1             2             3             4             5 
      1 -0.702417D-01
      2  0.851274D-02  0.353944D-01
      3 -0.170483D-02  0.637245D-03  0.502836D-01
      4  0.916501D-01 -0.668397D-02  0.480542D-02 -0.702417D-01
      5 -0.668396D-02  0.611713D-02 -0.560426D-03  0.851273D-02  0.353944D-01
      6  0.480543D-02 -0.560408D-03 -0.176476D-01 -0.170483D-02  0.637254D-03
      7 -0.291347D-02 -0.949523D-02  0.287744D-02 -0.206079D-02 -0.678787D-02
      8  0.104764D-02 -0.223680D-02  0.236397D-02  0.185270D-02 -0.192711D-02
      9 -0.185024D-02 -0.889161D-02  0.422984D-03  0.132709D-02  0.739252D-02
     10 -0.206077D-02 -0.678787D-02 -0.319210D-02 -0.291347D-02 -0.949524D-02
     11  0.185270D-02 -0.192711D-02 -0.222340D-02  0.104764D-02 -0.223679D-02
     12  0.132709D-02  0.739249D-02  0.748645D-03 -0.185024D-02 -0.889161D-02
     13 -0.627995D-02  0.827800D-02 -0.261313D-01 -0.101385D-01  0.617995D-02
     14 -0.260657D-02 -0.221628D-01  0.145376D-02 -0.212474D-02 -0.151857D-01
     15  0.395983D-01  0.544329D-02 -0.180789D-01 -0.421756D-01 -0.402123D-02
     16 -0.101385D-01  0.617994D-02  0.233483D-01 -0.627994D-02  0.827803D-02
     17 -0.212473D-02 -0.151857D-01 -0.167107D-02 -0.260656D-02 -0.221628D-01
     18 -0.421756D-01 -0.402124D-02 -0.157299D-01  0.395983D-01  0.544330D-02
                6             7             8             9            10 
      6  0.502836D-01
      7 -0.319210D-02  0.120854D-01
      8 -0.222339D-02  0.943973D-02  0.272359D+00
      9  0.748642D-03  0.151952D-02  0.308697D-03  0.914747D-02
     10  0.287744D-02  0.163002D-02  0.280134D-03  0.142435D-04  0.120854D-01
     11  0.236396D-02  0.280146D-03  0.128101D-02 -0.938098D-04  0.943973D-02
     12  0.422989D-03  0.142552D-04 -0.938144D-04  0.179980D-03  0.151953D-02
     13  0.233484D-01 -0.908153D-02 -0.125661D-01 -0.121818D-02  0.341064D-03
     14 -0.167106D-02  0.318229D-02 -0.270742D+00  0.130370D-02  0.338328D-02
     15 -0.157299D-01 -0.123379D-02 -0.245109D-03 -0.911689D-02  0.148721D-04
     16 -0.261313D-01  0.341061D-03 -0.550538D-04  0.207200D-03 -0.908153D-02
     17  0.145376D-02  0.338327D-02  0.126833D-02 -0.193743D-04  0.318228D-02
     18 -0.180789D-01  0.148837D-04 -0.110555D-03 -0.138058D-02 -0.123379D-02
               11            12            13            14            15 
     11  0.272359D+00
     12  0.308692D-03  0.914745D-02
     13 -0.550550D-04  0.207214D-03  0.110620D+00
     14  0.126834D-02 -0.193785D-04 -0.403073D-02  0.294270D+00
     15 -0.110556D-03 -0.138058D-02  0.124185D-02 -0.113817D-02  0.644537D-02
     16 -0.125661D-01 -0.121817D-02 -0.854772D-01  0.219380D-02  0.255166D-02
     17 -0.270742D+00  0.130369D-02  0.219380D-02  0.125505D-01  0.716070D-04
     18 -0.245096D-03 -0.911690D-02  0.255167D-02  0.715869D-04  0.378605D-01
               16            17            18 
     16  0.110620D+00
     17 -0.403073D-02  0.294270D+00
     18  0.124185D-02 -0.113818D-02  0.644539D-02
 Leave Link  716 at Fri Jan  3 11:38:52 2025, MaxMem=   104857600 cpu:               0.0 elap:               0.0
 (Enter /opt/g16/l123.exe)
 IRC-IRC-IRC-IRC-IRC-IRC-IRC-IRC-IRC-IRC-IRC-IRC-IRC-IRC-IRC-IRC-IRC-IRC
 Pt  1 Step number   1 out of a maximum of  20
 Point Number:   1          Path Number:   1
                    CURRENT STRUCTURE
                Cartesian Coordinates (Ang):                
 ---------------------------------------------------------------------
 Center     Atomic                     Coordinates (Angstroms)
 Number     Number                        X           Y           Z
 ---------------------------------------------------------------------
      1          1                   -0.037312    0.002862    0.730311
      2          1                    0.037312   -0.002862   -0.730311
      3          1                   -1.563172   -1.254190   -0.000232
      4          1                    1.563172    1.254190    0.000232
      5         16                   -1.511540    0.087213    0.000562
      6         16                    1.511540   -0.087213   -0.000562
 ---------------------------------------------------------------------
   CHANGE IN THE REACTION COORDINATE =    0.10076
   NET REACTION COORDINATE UP TO THIS POINT =    0.10076
  # OF POINTS ALONG THE PATH =   1
  # OF STEPS =   1

 Calculating another point on the path.
 Point Number  2 in FORWARD path direction.
 Using LQA Reaction Path Following.
   LQA: T_Est iteration completed in    3 iterations.
 IRC-IRC-IRC-IRC-IRC-IRC-IRC-IRC-IRC-IRC-IRC-IRC-IRC-IRC-IRC-IRC-IRC-IRC
 Leave Link  123 at Fri Jan  3 11:38:52 2025, MaxMem=   104857600 cpu:               0.0 elap:               0.0
 (Enter /opt/g16/l202.exe)
                          Input orientation:                          
 ---------------------------------------------------------------------
 Center     Atomic      Atomic             Coordinates (Angstroms)
 Number     Number       Type             X           Y           Z
 ---------------------------------------------------------------------
      1          1           0       -0.074593    0.005698    0.729449
      2          1           0        0.074593   -0.005698   -0.729449
      3          1           0       -1.563247   -1.254260   -0.000604
      4          1           0        1.563247    1.254260    0.000604
      5         16           0       -1.511525    0.087212    0.001143
      6         16           0        1.511525   -0.087212   -0.001143
 ---------------------------------------------------------------------
                    Distance matrix (angstroms):
                    1          2          3          4          5
     1  H    0.000000
     2  H    1.466551   0.000000
     3  H    2.082442   2.184638   0.000000
     4  H    2.184638   2.082442   4.008446   0.000000
     5  S    1.613025   1.748762   1.342470   3.288803   0.000000
     6  S    1.748762   1.613025   3.288803   1.342470   3.028079
                    6
     6  S    0.000000
 Symmetry turned off by external request.
 Stoichiometry    H4S2
 Framework group  C1[X(H4S2)]
 Deg. of freedom    12
 Full point group                 C1      NOp   1
 Rotational constants (GHZ):         110.0151881           3.3196386           3.2670778
 Leave Link  202 at Fri Jan  3 11:38:52 2025, MaxMem=   104857600 cpu:               0.0 elap:               0.0
 (Enter /opt/g16/l301.exe)
 Standard basis: STO-3G (5D, 7F)
 Ernie: Thresh=  0.10000D-02 Tol=  0.10000D-05 Strict=F.
    22 basis functions,    66 primitive gaussians,    22 cartesian basis functions
    18 alpha electrons       18 beta electrons
       nuclear repulsion energy        84.1672737625 Hartrees.
 IExCor=    0 DFT=F Ex=HF Corr=None ExCW=0 ScaHFX=  1.000000
 ScaDFX=  1.000000  1.000000  1.000000  1.000000 ScalE2=  1.000000  1.000000
 IRadAn=      5 IRanWt=     -1 IRanGd=            0 ICorTp=0 IEmpDi=  4
 NAtoms=    6 NActive=    6 NUniq=    6 SFac= 1.00D+00 NAtFMM=   60 NAOKFM=F Big=F
 Integral buffers will be    131072 words long.
 Raffenetti 1 integral format.
 Two-electron integral symmetry is turned off.
 Leave Link  301 at Fri Jan  3 11:38:52 2025, MaxMem=   104857600 cpu:               0.0 elap:               0.0
 (Enter /opt/g16/l402.exe)
 External calculation of energy, first and second derivatives.
 Running external command "python3 -u ../pes/h4s2_pes.py R"
         input file       "/home/jhli/scratch/g16/Gau-121895.EIn"
         output file      "/home/jhli/scratch/g16/Gau-121895.EOu"
         message file     "/home/jhli/scratch/g16/Gau-121895.EMs"
         fchk file        "/home/jhli/scratch/g16/Gau-121895.EFC"
         mat. el file     "/home/jhli/scratch/g16/Gau-121895.EUF"
 initialization done
 Recovered energy= -797.846037132     dipole=      0.000000000000      0.000000000000      0.000000000000
 Energy=    -797.846037     NIter=   0.
 Dipole moment=       0.000000       0.000000       0.000000
 Leave Link  402 at Fri Jan  3 11:38:52 2025, MaxMem=   104857600 cpu:               0.0 elap:               0.2
 (Enter /opt/g16/l716.exe)
 Dipole        = 0.00000000D+00 0.00000000D+00 0.00000000D+00
 -------------------------------------------------------------------
 Center     Atomic                   Forces (Hartrees/Bohr)
 Number     Number              X              Y              Z
 -------------------------------------------------------------------
      1        1          -0.022872900    0.001784012   -0.000767388
      2        1           0.022872905   -0.001784011    0.000767389
      3        1          -0.000074791   -0.000062744   -0.000252360
      4        1           0.000074790    0.000062744    0.000252361
      5       16           0.000372697   -0.000022708    0.011340845
      6       16          -0.000372701    0.000022706   -0.011340847
 -------------------------------------------------------------------
 Cartesian Forces:  Max     0.022872905 RMS     0.008535994
 Force constants in Cartesian coordinates: 
                1             2             3             4             5 
      1 -0.572868D-01
      2  0.822563D-02  0.358267D-01
      3 -0.214974D-02  0.124674D-02  0.511065D-01
      4  0.839962D-01 -0.662271D-02  0.894792D-02 -0.572868D-01
      5 -0.662272D-02  0.582105D-02 -0.111639D-02  0.822562D-02  0.358267D-01
      6  0.894790D-02 -0.111639D-02 -0.171476D-01 -0.214976D-02  0.124674D-02
      7 -0.332697D-02 -0.109558D-01  0.266510D-02 -0.154199D-02 -0.558976D-02
      8  0.695828D-03 -0.241608D-02  0.247399D-02  0.219115D-02 -0.181566D-02
      9 -0.233617D-02 -0.970465D-02  0.277728D-03  0.128971D-02  0.672494D-02
     10 -0.154201D-02 -0.558976D-02 -0.329521D-02 -0.332697D-02 -0.109558D-01
     11  0.219114D-02 -0.181567D-02 -0.220334D-02  0.695804D-03 -0.241609D-02
     12  0.128970D-02  0.672493D-02  0.956317D-03 -0.233618D-02 -0.970464D-02
     13 -0.838106D-02  0.950345D-02 -0.274430D-01 -0.134455D-01  0.544275D-02
     14 -0.277160D-02 -0.255150D-01  0.121952D-02 -0.172036D-02 -0.119019D-01
     15  0.335076D-01  0.627514D-02 -0.202332D-01 -0.392589D-01 -0.342619D-02
     16 -0.134455D-01  0.544275D-02  0.212807D-01 -0.838103D-02  0.950343D-02
     17 -0.172037D-02 -0.119019D-01 -0.162035D-02 -0.277161D-02 -0.255149D-01
     18 -0.392589D-01 -0.342619D-02 -0.149606D-01  0.335076D-01  0.627513D-02
                6             7             8             9            10 
      6  0.511065D-01
      7 -0.329521D-02  0.122319D-01
      8 -0.220332D-02  0.968599D-02  0.272919D+00
      9  0.956319D-03  0.300890D-02  0.651919D-03  0.918030D-02
     10  0.266508D-02  0.159535D-02  0.271128D-03  0.246896D-04  0.122319D-01
     11  0.247399D-02  0.271118D-03  0.118392D-02 -0.179406D-03  0.968599D-02
     12  0.277741D-03  0.246883D-04 -0.179406D-03  0.147392D-03  0.300890D-02
     13  0.212807D-01 -0.950801D-02 -0.124242D-01 -0.233357D-02  0.550273D-03
     14 -0.162036D-02  0.326398D-02 -0.271193D+00  0.255158D-02  0.332675D-02
     15 -0.149606D-01 -0.241077D-02 -0.549903D-03 -0.907040D-02  0.775156D-05
     16 -0.274430D-01  0.550276D-03 -0.420597D-03  0.345905D-03 -0.950800D-02
     17  0.121953D-02  0.332674D-02  0.132364D-02 -0.441700D-04  0.326397D-02
     18 -0.202332D-01  0.776724D-05 -0.193664D-03 -0.148968D-02 -0.241077D-02
               11            12            13            14            15 
     11  0.272919D+00
     12  0.651903D-03  0.918028D-02
     13 -0.420601D-03  0.345902D-03  0.112260D+00
     14  0.132365D-02 -0.441763D-04 -0.469690D-02  0.295153D+00
     15 -0.193677D-03 -0.148968D-02  0.337651D-02 -0.220831D-02  0.942710D-02
     16 -0.124242D-01 -0.233358D-02 -0.814902D-01  0.259527D-02  0.477271D-02
     17 -0.271193D+00  0.255160D-02  0.259527D-02  0.121321D-01  0.102556D-03
     18 -0.549898D-03 -0.907040D-02  0.477270D-02  0.102559D-03  0.363260D-01
               16            17            18 
     16  0.112260D+00
     17 -0.469687D-02  0.295153D+00
     18  0.337650D-02 -0.220832D-02  0.942710D-02
 Leave Link  716 at Fri Jan  3 11:38:52 2025, MaxMem=   104857600 cpu:               0.0 elap:               0.0
 (Enter /opt/g16/l123.exe)
 IRC-IRC-IRC-IRC-IRC-IRC-IRC-IRC-IRC-IRC-IRC-IRC-IRC-IRC-IRC-IRC-IRC-IRC
 Pt  2 Step number   1 out of a maximum of  20
 Point Number:   2          Path Number:   1
                    CURRENT STRUCTURE
                Cartesian Coordinates (Ang):                
 ---------------------------------------------------------------------
 Center     Atomic                     Coordinates (Angstroms)
 Number     Number                        X           Y           Z
 ---------------------------------------------------------------------
      1          1                   -0.074593    0.005698    0.729449
      2          1                    0.074593   -0.005698   -0.729449
      3          1                   -1.563247   -1.254260   -0.000604
      4          1                    1.563247    1.254260    0.000604
      5         16                   -1.511525    0.087212    0.001143
      6         16                    1.511525   -0.087212   -0.001143
 ---------------------------------------------------------------------
   CHANGE IN THE REACTION COORDINATE =    0.10073
   NET REACTION COORDINATE UP TO THIS POINT =    0.20148
  # OF POINTS ALONG THE PATH =   2
  # OF STEPS =   1

 Calculating another point on the path.
 Point Number  3 in FORWARD path direction.
 Using LQA Reaction Path Following.
   LQA: T_Est iteration completed in    3 iterations.
 IRC-IRC-IRC-IRC-IRC-IRC-IRC-IRC-IRC-IRC-IRC-IRC-IRC-IRC-IRC-IRC-IRC-IRC
 Leave Link  123 at Fri Jan  3 11:38:52 2025, MaxMem=   104857600 cpu:               0.0 elap:               0.0
 (Enter /opt/g16/l202.exe)
                          Input orientation:                          
 ---------------------------------------------------------------------
 Center     Atomic      Atomic             Coordinates (Angstroms)
 Number     Number       Type             X           Y           Z
 ---------------------------------------------------------------------
      1          1           0       -0.111848    0.008647    0.728030
      2          1           0        0.111848   -0.008647   -0.728030
      3          1           0       -1.563393   -1.254366   -0.001039
      4          1           0        1.563393    1.254366    0.001039
      5         16           0       -1.511505    0.087210    0.001726
      6         16           0        1.511505   -0.087210   -0.001726
 ---------------------------------------------------------------------
                    Distance matrix (angstroms):
                    1          2          3          4          5
     1  H    0.000000
     2  H    1.473244   0.000000
     3  H    2.057601   2.210602   0.000000
     4  H    2.210602   2.057601   4.008806   0.000000
     5  S    1.578838   1.782417   1.342582   3.288959   0.000000
     6  S    1.782417   1.578838   3.288959   1.342582   3.028040
                    6
     6  S    0.000000
 Symmetry turned off by external request.
 Stoichiometry    H4S2
 Framework group  C1[X(H4S2)]
 Deg. of freedom    12
 Full point group                 C1      NOp   1
 Rotational constants (GHZ):         110.1077072           3.3194863           3.2668211
 Leave Link  202 at Fri Jan  3 11:38:52 2025, MaxMem=   104857600 cpu:               0.0 elap:               0.0
 (Enter /opt/g16/l301.exe)
 Standard basis: STO-3G (5D, 7F)
 Ernie: Thresh=  0.10000D-02 Tol=  0.10000D-05 Strict=F.
    22 basis functions,    66 primitive gaussians,    22 cartesian basis functions
    18 alpha electrons       18 beta electrons
       nuclear repulsion energy        84.2098255176 Hartrees.
 IExCor=    0 DFT=F Ex=HF Corr=None ExCW=0 ScaHFX=  1.000000
 ScaDFX=  1.000000  1.000000  1.000000  1.000000 ScalE2=  1.000000  1.000000
 IRadAn=      5 IRanWt=     -1 IRanGd=            0 ICorTp=0 IEmpDi=  4
 NAtoms=    6 NActive=    6 NUniq=    6 SFac= 1.00D+00 NAtFMM=   60 NAOKFM=F Big=F
 Integral buffers will be    131072 words long.
 Raffenetti 1 integral format.
 Two-electron integral symmetry is turned off.
 Leave Link  301 at Fri Jan  3 11:38:52 2025, MaxMem=   104857600 cpu:               0.0 elap:               0.0
 (Enter /opt/g16/l402.exe)
 External calculation of energy, first and second derivatives.
 Running external command "python3 -u ../pes/h4s2_pes.py R"
         input file       "/home/jhli/scratch/g16/Gau-121895.EIn"
         output file      "/home/jhli/scratch/g16/Gau-121895.EOu"
         message file     "/home/jhli/scratch/g16/Gau-121895.EMs"
         fchk file        "/home/jhli/scratch/g16/Gau-121895.EFC"
         mat. el file     "/home/jhli/scratch/g16/Gau-121895.EUF"
 initialization done
 Recovered energy= -797.849986635     dipole=      0.000000000000      0.000000000000      0.000000000000
 Energy=    -797.849987     NIter=   0.
 Dipole moment=       0.000000       0.000000       0.000000
 Leave Link  402 at Fri Jan  3 11:38:52 2025, MaxMem=   104857600 cpu:               0.0 elap:               0.2
 (Enter /opt/g16/l716.exe)
 Dipole        = 0.00000000D+00 0.00000000D+00 0.00000000D+00
 -------------------------------------------------------------------
 Center     Atomic                   Forces (Hartrees/Bohr)
 Number     Number              X              Y              Z
 -------------------------------------------------------------------
      1        1          -0.031956467    0.002617245   -0.001432763
      2        1           0.031956473   -0.002617244    0.001432765
      3        1          -0.000172325   -0.000110801   -0.000420619
      4        1           0.000172325    0.000110801    0.000420619
      5       16           0.000460102   -0.000068004    0.015938288
      6       16          -0.000460107    0.000068004   -0.015938290
 -------------------------------------------------------------------
 Cartesian Forces:  Max     0.031956473 RMS     0.011947027
 Force constants in Cartesian coordinates: 
                1             2             3             4             5 
      1 -0.370615D-01
      2  0.766805D-02  0.363838D-01
      3 -0.253036D-03  0.179459D-02  0.525839D-01
      4  0.726273D-01 -0.642600D-02  0.119145D-01 -0.370615D-01
      5 -0.642601D-02  0.539711D-02 -0.165928D-02  0.766806D-02  0.363838D-01
      6  0.119145D-01 -0.165928D-02 -0.164339D-01 -0.253044D-03  0.179460D-02
      7 -0.377466D-02 -0.124574D-01  0.238900D-02 -0.938181D-03 -0.452778D-02
      8  0.462060D-03 -0.259191D-02  0.255700D-02  0.239173D-02 -0.173433D-02
      9 -0.287630D-02 -0.105251D-01  0.124320D-03  0.131387D-02  0.610012D-02
     10 -0.938179D-03 -0.452777D-02 -0.333067D-02 -0.377466D-02 -0.124574D-01
     11  0.239172D-02 -0.173432D-02 -0.217407D-02  0.462049D-03 -0.259190D-02
     12  0.131387D-02  0.610012D-02  0.119243D-02 -0.287628D-02 -0.105251D-01
     13 -0.148065D-01  0.107577D-01 -0.294087D-01 -0.160352D-01  0.498884D-02
     14 -0.292870D-02 -0.285237D-01  0.959814D-03 -0.116906D-02 -0.893182D-02
     15  0.242419D-01  0.721280D-02 -0.233643D-01 -0.343404D-01 -0.292374D-02
     16 -0.160352D-01  0.498883D-02  0.186965D-01 -0.148065D-01  0.107577D-01
     17 -0.116905D-02 -0.893182D-02 -0.147777D-02 -0.292870D-02 -0.285237D-01
     18 -0.343404D-01 -0.292373D-02 -0.141030D-01  0.242419D-01  0.721279D-02
                6             7             8             9            10 
      6  0.525839D-01
      7 -0.333067D-02  0.124824D-01
      8 -0.217407D-02  0.100774D-01  0.273707D+00
      9  0.119244D-02  0.443821D-02  0.101214D-02  0.921243D-02
     10  0.238900D-02  0.154307D-02  0.262865D-03  0.285095D-04  0.124824D-01
     11  0.255698D-02  0.262873D-03  0.106933D-02 -0.248350D-03  0.100774D-01
     12  0.124325D-03  0.284949D-04 -0.248335D-03  0.982905D-04  0.443821D-02
     13  0.186965D-01 -0.101595D-01 -0.121500D-01 -0.325989D-02  0.847426D-03
     14 -0.147777D-02  0.341260D-02 -0.271821D+00  0.374013D-02  0.323464D-02
     15 -0.141030D-01 -0.348729D-02 -0.926155D-03 -0.900372D-02 -0.371013D-04
     16 -0.294087D-01  0.847424D-03 -0.104434D-02  0.355122D-03 -0.101595D-01
     17  0.959813D-03  0.323463D-02  0.137308D-02 -0.786530D-04  0.341259D-02
     18 -0.233643D-01 -0.371127D-04 -0.221134D-03 -0.162197D-02 -0.348728D-02
               11            12            13            14            15 
     11  0.273707D+00
     12  0.101212D-02  0.921241D-02
     13 -0.104435D-02  0.355118D-03  0.115221D+00
     14  0.137308D-02 -0.786617D-04 -0.577936D-02  0.296384D+00
     15 -0.221130D-03 -0.162195D-02  0.725439D-02 -0.320653D-02  0.141695D-01
     16 -0.121500D-01 -0.325988D-02 -0.750791D-01  0.322685D-02  0.636133D-02
     17 -0.271821D+00  0.374015D-02  0.322685D-02  0.115187D-01  0.641945D-04
     18 -0.926144D-03 -0.900371D-02  0.636133D-02  0.641996D-04  0.339222D-01
               16            17            18 
     16  0.115221D+00
     17 -0.577937D-02  0.296384D+00
     18  0.725437D-02 -0.320655D-02  0.141695D-01
 Leave Link  716 at Fri Jan  3 11:38:52 2025, MaxMem=   104857600 cpu:               0.0 elap:               0.0
 (Enter /opt/g16/l123.exe)
 IRC-IRC-IRC-IRC-IRC-IRC-IRC-IRC-IRC-IRC-IRC-IRC-IRC-IRC-IRC-IRC-IRC-IRC
 Pt  3 Step number   1 out of a maximum of  20
 Point Number:   3          Path Number:   1
                    CURRENT STRUCTURE
                Cartesian Coordinates (Ang):                
 ---------------------------------------------------------------------
 Center     Atomic                     Coordinates (Angstroms)
 Number     Number                        X           Y           Z
 ---------------------------------------------------------------------
      1          1                   -0.111848    0.008647    0.728030
      2          1                    0.111848   -0.008647   -0.728030
      3          1                   -1.563393   -1.254366   -0.001039
      4          1                    1.563393    1.254366    0.001039
      5         16                   -1.511505    0.087210    0.001726
      6         16                    1.511505   -0.087210   -0.001726
 ---------------------------------------------------------------------
   CHANGE IN THE REACTION COORDINATE =    0.10073
   NET REACTION COORDINATE UP TO THIS POINT =    0.30222
  # OF POINTS ALONG THE PATH =   3
  # OF STEPS =   1

 Calculating another point on the path.
 Point Number  4 in FORWARD path direction.
 Using LQA Reaction Path Following.
   LQA: T_Est iteration completed in    3 iterations.
 IRC-IRC-IRC-IRC-IRC-IRC-IRC-IRC-IRC-IRC-IRC-IRC-IRC-IRC-IRC-IRC-IRC-IRC
 Leave Link  123 at Fri Jan  3 11:38:52 2025, MaxMem=   104857600 cpu:               0.0 elap:               0.0
 (Enter /opt/g16/l202.exe)
                          Input orientation:                          
 ---------------------------------------------------------------------
 Center     Atomic      Atomic             Coordinates (Angstroms)
 Number     Number       Type             X           Y           Z
 ---------------------------------------------------------------------
      1          1           0       -0.149070    0.011767    0.726222
      2          1           0        0.149070   -0.011767   -0.726222
      3          1           0       -1.563631   -1.254501   -0.001568
      4          1           0        1.563631    1.254501    0.001568
      5         16           0       -1.511492    0.087207    0.002313
      6         16           0        1.511492   -0.087207   -0.002313
 ---------------------------------------------------------------------
                    Distance matrix (angstroms):
                    1          2          3          4          5
     1  H    0.000000
     2  H    1.482914   0.000000
     3  H    2.033248   2.236707   0.000000
     4  H    2.236708   2.033248   4.009349   0.000000
     5  S    1.544645   1.816047   1.342727   3.289219   0.000000
     6  S    1.816047   1.544646   3.289219   1.342727   3.028015
                    6
     6  S    0.000000
 Symmetry turned off by external request.
 Stoichiometry    H4S2
 Framework group  C1[X(H4S2)]
 Deg. of freedom    12
 Full point group                 C1      NOp   1
 Rotational constants (GHZ):         110.2257871           3.3191961           3.2663996
 Leave Link  202 at Fri Jan  3 11:38:52 2025, MaxMem=   104857600 cpu:               0.0 elap:               0.0
 (Enter /opt/g16/l301.exe)
 Standard basis: STO-3G (5D, 7F)
 Ernie: Thresh=  0.10000D-02 Tol=  0.10000D-05 Strict=F.
    22 basis functions,    66 primitive gaussians,    22 cartesian basis functions
    18 alpha electrons       18 beta electrons
       nuclear repulsion energy        84.2681248911 Hartrees.
 IExCor=    0 DFT=F Ex=HF Corr=None ExCW=0 ScaHFX=  1.000000
 ScaDFX=  1.000000  1.000000  1.000000  1.000000 ScalE2=  1.000000  1.000000
 IRadAn=      5 IRanWt=     -1 IRanGd=            0 ICorTp=0 IEmpDi=  4
 NAtoms=    6 NActive=    6 NUniq=    6 SFac= 1.00D+00 NAtFMM=   60 NAOKFM=F Big=F
 Integral buffers will be    131072 words long.
 Raffenetti 1 integral format.
 Two-electron integral symmetry is turned off.
 Leave Link  301 at Fri Jan  3 11:38:52 2025, MaxMem=   104857600 cpu:               0.0 elap:               0.0
 (Enter /opt/g16/l402.exe)
 External calculation of energy, first and second derivatives.
 Running external command "python3 -u ../pes/h4s2_pes.py R"
         input file       "/home/jhli/scratch/g16/Gau-121895.EIn"
         output file      "/home/jhli/scratch/g16/Gau-121895.EOu"
         message file     "/home/jhli/scratch/g16/Gau-121895.EMs"
         fchk file        "/home/jhli/scratch/g16/Gau-121895.EFC"
         mat. el file     "/home/jhli/scratch/g16/Gau-121895.EUF"
 initialization done
 Recovered energy= -797.855066121     dipole=      0.000000000000      0.000000000000      0.000000000000
 Energy=    -797.855066     NIter=   0.
 Dipole moment=       0.000000       0.000000       0.000000
 Leave Link  402 at Fri Jan  3 11:38:52 2025, MaxMem=   104857600 cpu:               0.0 elap:               0.2
 (Enter /opt/g16/l716.exe)
 Dipole        = 0.00000000D+00 0.00000000D+00 0.00000000D+00
 -------------------------------------------------------------------
 Center     Atomic                   Forces (Hartrees/Bohr)
 Number     Number              X              Y              Z
 -------------------------------------------------------------------
      1        1          -0.038513955    0.003359900   -0.001965938
      2        1           0.038513962   -0.003359899    0.001965941
      3        1          -0.000321272   -0.000152657   -0.000618361
      4        1           0.000321272    0.000152657    0.000618362
      5       16          -0.000004261   -0.000142163    0.019345122
      6       16           0.000004254    0.000142163   -0.019345125
 -------------------------------------------------------------------
 Cartesian Forces:  Max     0.038513962 RMS     0.014426988
 Force constants in Cartesian coordinates: 
                1             2             3             4             5 
      1 -0.113791D-01
      2  0.674954D-02  0.368534D-01
      3  0.472538D-02  0.222579D-02  0.548482D-01
      4  0.593410D-01 -0.597940D-02  0.134641D-01 -0.113791D-01
      5 -0.597941D-02  0.492905D-02 -0.215766D-02  0.674954D-02  0.368534D-01
      6  0.134641D-01 -0.215766D-02 -0.156576D-01  0.472537D-02  0.222580D-02
      7 -0.425176D-02 -0.139782D-01  0.201437D-02 -0.283091D-03 -0.362393D-02
      8  0.420802D-03 -0.274751D-02  0.255581D-02  0.237037D-02 -0.167626D-02
      9 -0.334626D-02 -0.113170D-01 -0.415868D-04  0.129676D-02  0.549658D-02
     10 -0.283085D-03 -0.362392D-02 -0.325647D-02 -0.425177D-02 -0.139782D-01
     11  0.237039D-02 -0.167624D-02 -0.208279D-02  0.420801D-03 -0.274750D-02
     12  0.129677D-02  0.549657D-02  0.143188D-02 -0.334626D-02 -0.113170D-01
     13 -0.263924D-01  0.120051D-01 -0.327578D-01 -0.170267D-01  0.482992D-02
     14 -0.308954D-02 -0.309979D-01  0.734257D-03 -0.473465D-03 -0.636160D-02
     15  0.121070D-01  0.828582D-02 -0.276017D-01 -0.282461D-01 -0.253431D-02
     16 -0.170267D-01  0.482992D-02  0.158187D-01 -0.263924D-01  0.120051D-01
     17 -0.473471D-03 -0.636160D-02 -0.127501D-02 -0.308952D-02 -0.309979D-01
     18 -0.282461D-01 -0.253431D-02 -0.129792D-01  0.121070D-01  0.828583D-02
                6             7             8             9            10 
      6  0.548482D-01
      7 -0.325646D-02  0.128478D-01
      8 -0.208279D-02  0.105828D-01  0.274507D+00
      9  0.143187D-02  0.577987D-02  0.139265D-02  0.921951D-02
     10  0.201437D-02  0.148009D-02  0.266634D-03  0.248504D-04  0.128478D-01
     11  0.255581D-02  0.266630D-03  0.991746D-03 -0.292285D-03  0.105828D-01
     12 -0.415874D-04  0.248516D-04 -0.292276D-03  0.371976D-04  0.577988D-02
     13  0.158188D-01 -0.109412D-01 -0.117289D-01 -0.395229D-02  0.114883D-02
     14 -0.127502D-02  0.364756D-02 -0.272443D+00  0.484399D-02  0.310737D-02
     15 -0.129792D-01 -0.444031D-02 -0.140611D-02 -0.893343D-02 -0.121473D-03
     16 -0.327578D-01  0.114882D-02 -0.191158D-02  0.197064D-03 -0.109412D-01
     17  0.734254D-03  0.310738D-02  0.136880D-02 -0.123545D-03  0.364756D-02
     18 -0.276017D-01 -0.121481D-03 -0.167995D-03 -0.171165D-02 -0.444030D-02
               11            12            13            14            15 
     11  0.274507D+00
     12  0.139266D-02  0.921951D-02
     13 -0.191158D-02  0.197072D-03  0.120020D+00
     14  0.136880D-02 -0.123550D-03 -0.720324D-02  0.297619D+00
     15 -0.167988D-03 -0.171164D-02  0.135975D-01 -0.411923D-02  0.203586D-01
     16 -0.117289D-01 -0.395228D-02 -0.668169D-01  0.400820D-02  0.709497D-02
     17 -0.272443D+00  0.484402D-02  0.400819D-02  0.108136D-01 -0.589392D-04
     18 -0.140610D-02 -0.893342D-02  0.709498D-02 -0.589385D-04  0.308654D-01
               16            17            18 
     16  0.120020D+00
     17 -0.720324D-02  0.297619D+00
     18  0.135975D-01 -0.411925D-02  0.203586D-01
 Leave Link  716 at Fri Jan  3 11:38:52 2025, MaxMem=   104857600 cpu:               0.0 elap:               0.0
 (Enter /opt/g16/l123.exe)
 IRC-IRC-IRC-IRC-IRC-IRC-IRC-IRC-IRC-IRC-IRC-IRC-IRC-IRC-IRC-IRC-IRC-IRC
 Pt  4 Step number   1 out of a maximum of  20
 Point Number:   4          Path Number:   1
                    CURRENT STRUCTURE
                Cartesian Coordinates (Ang):                
 ---------------------------------------------------------------------
 Center     Atomic                     Coordinates (Angstroms)
 Number     Number                        X           Y           Z
 ---------------------------------------------------------------------
      1          1                   -0.149070    0.011767    0.726222
      2          1                    0.149070   -0.011767   -0.726222
      3          1                   -1.563631   -1.254501   -0.001568
      4          1                    1.563631    1.254501    0.001568
      5         16                   -1.511492    0.087207    0.002313
      6         16                    1.511492   -0.087207   -0.002313
 ---------------------------------------------------------------------
   CHANGE IN THE REACTION COORDINATE =    0.10073
   NET REACTION COORDINATE UP TO THIS POINT =    0.40295
  # OF POINTS ALONG THE PATH =   4
  # OF STEPS =   1

 Calculating another point on the path.
 Point Number  5 in FORWARD path direction.
 Using LQA Reaction Path Following.
   LQA: T_Est iteration completed in    3 iterations.
 IRC-IRC-IRC-IRC-IRC-IRC-IRC-IRC-IRC-IRC-IRC-IRC-IRC-IRC-IRC-IRC-IRC-IRC
 Leave Link  123 at Fri Jan  3 11:38:52 2025, MaxMem=   104857600 cpu:               0.0 elap:               0.0
 (Enter /opt/g16/l202.exe)
                          Input orientation:                          
 ---------------------------------------------------------------------
 Center     Atomic      Atomic             Coordinates (Angstroms)
 Number     Number       Type             X           Y           Z
 ---------------------------------------------------------------------
      1          1           0       -0.186262    0.015110    0.724278
      2          1           0        0.186261   -0.015110   -0.724278
      3          1           0       -1.563999   -1.254652   -0.002218
      4          1           0        1.563999    1.254652    0.002218
      5         16           0       -1.511505    0.087202    0.002904
      6         16           0        1.511505   -0.087202   -0.002904
 ---------------------------------------------------------------------
                    Distance matrix (angstroms):
                    1          2          3          4          5
     1  H    0.000000
     2  H    1.495994   0.000000
     3  H    2.009541   2.263017   0.000000
     4  H    2.263017   2.009541   4.010113   0.000000
     5  S    1.510579   1.849776   1.342890   3.289630   0.000000
     6  S    1.849776   1.510579   3.289630   1.342890   3.028042
                    6
     6  S    0.000000
 Symmetry turned off by external request.
 Stoichiometry    H4S2
 Framework group  C1[X(H4S2)]
 Deg. of freedom    12
 Full point group                 C1      NOp   1
 Rotational constants (GHZ):         110.3534058           3.3186665           3.2657317
 Leave Link  202 at Fri Jan  3 11:38:52 2025, MaxMem=   104857600 cpu:               0.0 elap:               0.0
 (Enter /opt/g16/l301.exe)
 Standard basis: STO-3G (5D, 7F)
 Ernie: Thresh=  0.10000D-02 Tol=  0.10000D-05 Strict=F.
    22 basis functions,    66 primitive gaussians,    22 cartesian basis functions
    18 alpha electrons       18 beta electrons
       nuclear repulsion energy        84.3402549246 Hartrees.
 IExCor=    0 DFT=F Ex=HF Corr=None ExCW=0 ScaHFX=  1.000000
 ScaDFX=  1.000000  1.000000  1.000000  1.000000 ScalE2=  1.000000  1.000000
 IRadAn=      5 IRanWt=     -1 IRanGd=            0 ICorTp=0 IEmpDi=  4
 NAtoms=    6 NActive=    6 NUniq=    6 SFac= 1.00D+00 NAtFMM=   60 NAOKFM=F Big=F
 Integral buffers will be    131072 words long.
 Raffenetti 1 integral format.
 Two-electron integral symmetry is turned off.
 Leave Link  301 at Fri Jan  3 11:38:52 2025, MaxMem=   104857600 cpu:               0.0 elap:               0.0
 (Enter /opt/g16/l402.exe)
 External calculation of energy, first and second derivatives.
 Running external command "python3 -u ../pes/h4s2_pes.py R"
         input file       "/home/jhli/scratch/g16/Gau-121895.EIn"
         output file      "/home/jhli/scratch/g16/Gau-121895.EOu"
         message file     "/home/jhli/scratch/g16/Gau-121895.EMs"
         fchk file        "/home/jhli/scratch/g16/Gau-121895.EFC"
         mat. el file     "/home/jhli/scratch/g16/Gau-121895.EUF"
 initialization done
 Recovered energy= -797.860882832     dipole=      0.000000000000      0.000000000000      0.000000000000
 Energy=    -797.860883     NIter=   0.
 Dipole moment=       0.000000       0.000000       0.000000
 Leave Link  402 at Fri Jan  3 11:38:53 2025, MaxMem=   104857600 cpu:               0.0 elap:               0.2
 (Enter /opt/g16/l716.exe)
 Dipole        = 0.00000000D+00 0.00000000D+00 0.00000000D+00
 -------------------------------------------------------------------
 Center     Atomic                   Forces (Hartrees/Bohr)
 Number     Number              X              Y              Z
 -------------------------------------------------------------------
      1        1          -0.042143403    0.003956439   -0.002069148
      2        1           0.042143411   -0.003956438    0.002069151
      3        1          -0.000524043   -0.000164619   -0.000826808
      4        1           0.000524043    0.000164619    0.000826809
      5       16          -0.001502390   -0.000246265    0.021315129
      6       16           0.001502382    0.000246264   -0.021315133
 -------------------------------------------------------------------
 Cartesian Forces:  Max     0.042143411 RMS     0.015824171
 Force constants in Cartesian coordinates: 
                1             2             3             4             5 
      1  0.177253D-01
      2  0.540690D-02  0.370001D-01
      3  0.130677D-01  0.246331D-02  0.580299D-01
      4  0.460934D-01 -0.519508D-02  0.137156D-01  0.177253D-01
      5 -0.519509D-02  0.449727D-02 -0.255587D-02  0.540690D-02  0.370001D-01
      6  0.137156D-01 -0.255588D-02 -0.149592D-01  0.130677D-01  0.246331D-02
      7 -0.470375D-02 -0.154947D-01  0.151450D-02  0.335859D-03 -0.289481D-02
      8  0.625736D-03 -0.287409D-02  0.243216D-02  0.206745D-02 -0.162693D-02
      9 -0.362335D-02 -0.120505D-01 -0.207517D-03  0.115135D-02  0.489458D-02
     10  0.335861D-03 -0.289480D-02 -0.303436D-02 -0.470374D-02 -0.154947D-01
     11  0.206744D-02 -0.162694D-02 -0.189090D-02  0.625730D-03 -0.287409D-02
     12  0.115134D-02  0.489457D-02  0.162730D-02 -0.362334D-02 -0.120505D-01
     13 -0.433304D-01  0.132702D-01 -0.383104D-01 -0.161161D-01  0.490978D-02
     14 -0.321661D-02 -0.327601D-01  0.600481D-03  0.310232D-03 -0.423703D-02
     15 -0.246072D-02  0.952203D-02 -0.329549D-01 -0.218492D-01 -0.227455D-02
     16 -0.161161D-01  0.490978D-02  0.130548D-01 -0.433304D-01  0.132702D-01
     17  0.310225D-03 -0.423702D-02 -0.104866D-02 -0.321662D-02 -0.327601D-01
     18 -0.218492D-01 -0.227455D-02 -0.115351D-01 -0.246070D-02  0.952203D-02
                6             7             8             9            10 
      6  0.580299D-01
      7 -0.303435D-02  0.133354D-01
      8 -0.189090D-02  0.111587D-01  0.275089D+00
      9  0.162729D-02  0.700975D-02  0.179513D-02  0.918332D-02
     10  0.151452D-02  0.141444D-02  0.298646D-03  0.156605D-04  0.133354D-01
     11  0.243216D-02  0.298648D-03  0.999009D-03 -0.306548D-03  0.111587D-01
     12 -0.207527D-03  0.156646D-04 -0.306551D-03 -0.335706D-04  0.700975D-02
     13  0.130548D-01 -0.117263D-01 -0.112115D-01 -0.443480D-02  0.134516D-02
     14 -0.104865D-02  0.399062D-02 -0.272858D+00  0.584202D-02  0.294366D-02
     15 -0.115351D-01 -0.527690D-02 -0.200770D-02 -0.887697D-02 -0.227645D-03
     16 -0.383104D-01  0.134517D-02 -0.293851D-02 -0.117779D-03 -0.117263D-01
     17  0.600469D-03  0.294366D-02  0.127242D-02 -0.174226D-03  0.399062D-02
     18 -0.329549D-01 -0.227648D-03 -0.229315D-04 -0.169047D-02 -0.527690D-02
               11            12            13            14            15 
     11  0.275089D+00
     12  0.179513D-02  0.918331D-02
     13 -0.293851D-02 -0.117778D-03  0.127589D+00
     14  0.127242D-02 -0.174225D-03 -0.882732D-02  0.298458D+00
     15 -0.229357D-04 -0.169047D-02  0.228987D-01 -0.496291D-02  0.276290D-01
     16 -0.112115D-01 -0.443480D-02 -0.577665D-01  0.479652D-02  0.690715D-02
     17 -0.272858D+00  0.584203D-02  0.479652D-02  0.101234D-01 -0.254919D-03
     18 -0.200768D-02 -0.887698D-02  0.690714D-02 -0.254915D-03  0.274259D-01
               16            17            18 
     16  0.127589D+00
     17 -0.882731D-02  0.298458D+00
     18  0.228987D-01 -0.496293D-02  0.276290D-01
 Leave Link  716 at Fri Jan  3 11:38:53 2025, MaxMem=   104857600 cpu:               0.0 elap:               0.0
 (Enter /opt/g16/l123.exe)
 IRC-IRC-IRC-IRC-IRC-IRC-IRC-IRC-IRC-IRC-IRC-IRC-IRC-IRC-IRC-IRC-IRC-IRC
 Pt  5 Step number   1 out of a maximum of  20
 Point Number:   5          Path Number:   1
                    CURRENT STRUCTURE
                Cartesian Coordinates (Ang):                
 ---------------------------------------------------------------------
 Center     Atomic                     Coordinates (Angstroms)
 Number     Number                        X           Y           Z
 ---------------------------------------------------------------------
      1          1                   -0.186262    0.015110    0.724278
      2          1                    0.186261   -0.015110   -0.724278
      3          1                   -1.563999   -1.254652   -0.002218
      4          1                    1.563999    1.254652    0.002218
      5         16                   -1.511505    0.087202    0.002904
      6         16                    1.511505   -0.087202   -0.002904
 ---------------------------------------------------------------------
   CHANGE IN THE REACTION COORDINATE =    0.10074
   NET REACTION COORDINATE UP TO THIS POINT =    0.50369
  # OF POINTS ALONG THE PATH =   5
  # OF STEPS =   1

 Calculating another point on the path.
 Point Number  6 in FORWARD path direction.
 Using LQA Reaction Path Following.
   LQA: T_Est iteration completed in    3 iterations.
 IRC-IRC-IRC-IRC-IRC-IRC-IRC-IRC-IRC-IRC-IRC-IRC-IRC-IRC-IRC-IRC-IRC-IRC
 Leave Link  123 at Fri Jan  3 11:38:53 2025, MaxMem=   104857600 cpu:               0.0 elap:               0.0
 (Enter /opt/g16/l202.exe)
                          Input orientation:                          
 ---------------------------------------------------------------------
 Center     Atomic      Atomic             Coordinates (Angstroms)
 Number     Number       Type             X           Y           Z
 ---------------------------------------------------------------------
      1          1           0       -0.223431    0.018725    0.722574
      2          1           0        0.223431   -0.018725   -0.722574
      3          1           0       -1.564546   -1.254792   -0.003015
      4          1           0        1.564546    1.254792    0.003015
      5         16           0       -1.511575    0.087194    0.003498
      6         16           0        1.511575   -0.087194   -0.003498
 ---------------------------------------------------------------------
                    Distance matrix (angstroms):
                    1          2          3          4          5
     1  H    0.000000
     2  H    1.513124   0.000000
     3  H    1.986685   2.289648   0.000000
     4  H    2.289648   1.986685   4.011143   0.000000
     5  S    1.476846   1.883785   1.343046   3.290259   0.000000
     6  S    1.883785   1.476846   3.290259   1.343046   3.028183
                    6
     6  S    0.000000
 Symmetry turned off by external request.
 Stoichiometry    H4S2
 Framework group  C1[X(H4S2)]
 Deg. of freedom    12
 Full point group                 C1      NOp   1
 Rotational constants (GHZ):         110.4670992           3.3177357           3.2646866
 Leave Link  202 at Fri Jan  3 11:38:53 2025, MaxMem=   104857600 cpu:               0.0 elap:               0.0
 (Enter /opt/g16/l301.exe)
 Standard basis: STO-3G (5D, 7F)
 Ernie: Thresh=  0.10000D-02 Tol=  0.10000D-05 Strict=F.
    22 basis functions,    66 primitive gaussians,    22 cartesian basis functions
    18 alpha electrons       18 beta electrons
       nuclear repulsion energy        84.4230897821 Hartrees.
 IExCor=    0 DFT=F Ex=HF Corr=None ExCW=0 ScaHFX=  1.000000
 ScaDFX=  1.000000  1.000000  1.000000  1.000000 ScalE2=  1.000000  1.000000
 IRadAn=      5 IRanWt=     -1 IRanGd=            0 ICorTp=0 IEmpDi=  4
 NAtoms=    6 NActive=    6 NUniq=    6 SFac= 1.00D+00 NAtFMM=   60 NAOKFM=F Big=F
 Integral buffers will be    131072 words long.
 Raffenetti 1 integral format.
 Two-electron integral symmetry is turned off.
 Leave Link  301 at Fri Jan  3 11:38:53 2025, MaxMem=   104857600 cpu:               0.0 elap:               0.0
 (Enter /opt/g16/l402.exe)
 External calculation of energy, first and second derivatives.
 Running external command "python3 -u ../pes/h4s2_pes.py R"
         input file       "/home/jhli/scratch/g16/Gau-121895.EIn"
         output file      "/home/jhli/scratch/g16/Gau-121895.EOu"
         message file     "/home/jhli/scratch/g16/Gau-121895.EMs"
         fchk file        "/home/jhli/scratch/g16/Gau-121895.EFC"
         mat. el file     "/home/jhli/scratch/g16/Gau-121895.EUF"
 initialization done
 Recovered energy= -797.867004506     dipole=      0.000000000000      0.000000000000      0.000000000000
 Energy=    -797.867005     NIter=   0.
 Dipole moment=       0.000000       0.000000       0.000000
 Leave Link  402 at Fri Jan  3 11:38:53 2025, MaxMem=   104857600 cpu:               0.0 elap:               0.2
 (Enter /opt/g16/l716.exe)
 Dipole        = 0.00000000D+00 0.00000000D+00 0.00000000D+00
 -------------------------------------------------------------------
 Center     Atomic                   Forces (Hartrees/Bohr)
 Number     Number              X              Y              Z
 -------------------------------------------------------------------
      1        1          -0.042716905    0.004345683   -0.001482440
      2        1           0.042716914   -0.004345683    0.001482443
      3        1          -0.000770355   -0.000125930   -0.001015023
      4        1           0.000770355    0.000125930    0.001015023
      5       16          -0.004482336   -0.000365661    0.021707842
      6       16           0.004482327    0.000365662   -0.021707846
 -------------------------------------------------------------------
 Cartesian Forces:  Max     0.042716914 RMS     0.016120767
 Force constants in Cartesian coordinates: 
                1             2             3             4             5 
      1  0.484644D-01
      2  0.366558D-02  0.366202D-01
      3  0.246113D-01  0.242263D-02  0.622049D-01
      4  0.344481D-01 -0.407646D-02  0.131096D-01  0.484644D-01
      5 -0.407647D-02  0.414839D-02 -0.278511D-02  0.366558D-02  0.366202D-01
      6  0.131096D-01 -0.278511D-02 -0.143937D-01  0.246113D-01  0.242264D-02
      7 -0.503250D-02 -0.169794D-01  0.893760D-03  0.791999D-03 -0.234652D-02
      8  0.106696D-02 -0.297900D-02  0.218367D-02  0.149453D-02 -0.156454D-02
      9 -0.363992D-02 -0.127147D-01 -0.346362D-03  0.852432D-03  0.428776D-02
     10  0.791996D-03 -0.234651D-02 -0.265445D-02 -0.503250D-02 -0.169794D-01
     11  0.149453D-02 -0.156454D-02 -0.159139D-02  0.106695D-02 -0.297900D-02
     12  0.852435D-03  0.428776D-02  0.172041D-02 -0.363992D-02 -0.127147D-01
     13 -0.649344D-01  0.146480D-01 -0.467929D-01 -0.137373D-01  0.509018D-02
     14 -0.321362D-02 -0.336594D-01  0.608385D-03  0.106198D-02 -0.256635D-02
     15 -0.190273D-01  0.109305D-01 -0.393312D-01 -0.159045D-01 -0.214225D-02
     16 -0.137373D-01  0.509018D-02  0.108386D-01 -0.649344D-01  0.146480D-01
     17  0.106196D-02 -0.256634D-02 -0.837521D-03 -0.321362D-02 -0.336594D-01
     18 -0.159045D-01 -0.214224D-02 -0.985308D-02 -0.190272D-01  0.109305D-01
                6             7             8             9            10 
      6  0.622049D-01
      7 -0.265445D-02  0.139366D-01
      8 -0.159140D-02  0.117560D-01  0.275270D+00
      9  0.172041D-02  0.810995D-02  0.222390D-02  0.910444D-02
     10  0.893758D-03  0.135589D-02  0.375403D-03  0.530938D-05  0.139367D-01
     11  0.218367D-02  0.375404D-03  0.111076D-02 -0.294173D-03  0.117560D-01
     12 -0.346366D-03  0.531192D-05 -0.294169D-03 -0.115567D-03  0.810995D-02
     13  0.108386D-01 -0.123860D-01 -0.107325D-01 -0.481072D-02  0.133529D-02
     14 -0.837519D-03  0.445282D-02 -0.272909D+00  0.671821D-02  0.274382D-02
     15 -0.985309D-02 -0.603418D-02 -0.272227D-02 -0.884665D-02 -0.319168D-03
     16 -0.467928D-01  0.133528D-02 -0.395928D-02 -0.515245D-03 -0.123860D-01
     17  0.608385D-03  0.274382D-02  0.107304D-02 -0.220495D-03  0.445282D-02
     18 -0.393312D-01 -0.319181D-03  0.199471D-03 -0.151412D-02 -0.603418D-02
               11            12            13            14            15 
     11  0.275270D+00
     12  0.222390D-02  0.910445D-02
     13 -0.395927D-02 -0.515243D-03  0.139080D+00
     14  0.107306D-02 -0.220490D-03 -0.104585D-01  0.298532D+00
     15  0.199477D-03 -0.151415D-02  0.353240D-01 -0.578749D-02  0.356559D-01
     16 -0.107325D-01 -0.481072D-02 -0.493597D-01  0.541107D-02  0.595334D-02
     17 -0.272909D+00  0.671824D-02  0.541107D-02  0.952918D-02 -0.479137D-03
     18 -0.272226D-02 -0.884665D-02  0.595334D-02 -0.479128D-03  0.238861D-01
               16            17            18 
     16  0.139080D+00
     17 -0.104585D-01  0.298532D+00
     18  0.353239D-01 -0.578749D-02  0.356559D-01
 Leave Link  716 at Fri Jan  3 11:38:53 2025, MaxMem=   104857600 cpu:               0.0 elap:               0.0
 (Enter /opt/g16/l123.exe)
 IRC-IRC-IRC-IRC-IRC-IRC-IRC-IRC-IRC-IRC-IRC-IRC-IRC-IRC-IRC-IRC-IRC-IRC
 Pt  6 Step number   1 out of a maximum of  20
 Point Number:   6          Path Number:   1
                    CURRENT STRUCTURE
                Cartesian Coordinates (Ang):                
 ---------------------------------------------------------------------
 Center     Atomic                     Coordinates (Angstroms)
 Number     Number                        X           Y           Z
 ---------------------------------------------------------------------
      1          1                   -0.223431    0.018725    0.722574
      2          1                    0.223431   -0.018725   -0.722574
      3          1                   -1.564546   -1.254792   -0.003015
      4          1                    1.564546    1.254792    0.003015
      5         16                   -1.511575    0.087194    0.003498
      6         16                    1.511575   -0.087194   -0.003498
 ---------------------------------------------------------------------
   CHANGE IN THE REACTION COORDINATE =    0.10074
   NET REACTION COORDINATE UP TO THIS POINT =    0.60443
  # OF POINTS ALONG THE PATH =   6
  # OF STEPS =   1

 Calculating another point on the path.
 Point Number  7 in FORWARD path direction.
 Using LQA Reaction Path Following.
   LQA: T_Est iteration completed in    2 iterations.
 IRC-IRC-IRC-IRC-IRC-IRC-IRC-IRC-IRC-IRC-IRC-IRC-IRC-IRC-IRC-IRC-IRC-IRC
 Leave Link  123 at Fri Jan  3 11:38:53 2025, MaxMem=   104857600 cpu:               0.0 elap:               0.0
 (Enter /opt/g16/l202.exe)
                          Input orientation:                          
 ---------------------------------------------------------------------
 Center     Atomic      Atomic             Coordinates (Angstroms)
 Number     Number       Type             X           Y           Z
 ---------------------------------------------------------------------
      1          1           0       -0.260576    0.022657    0.721684
      2          1           0        0.260576   -0.022657   -0.721684
      3          1           0       -1.565337   -1.254879   -0.003977
      4          1           0        1.565337    1.254879    0.003977
      5         16           0       -1.511752    0.087182    0.004094
      6         16           0        1.511752   -0.087182   -0.004094
 ---------------------------------------------------------------------
                    Distance matrix (angstroms):
                    1          2          3          4          5
     1  H    0.000000
     2  H    1.535240   0.000000
     3  H    1.964964   2.316772   0.000000
     4  H    2.316773   1.964964   4.012490   0.000000
     5  S    1.443793   1.918323   1.343155   3.291199   0.000000
     6  S    1.918323   1.443793   3.291199   1.343155   3.028538
                    6
     6  S    0.000000
 Symmetry turned off by external request.
 Stoichiometry    H4S2
 Framework group  C1[X(H4S2)]
 Deg. of freedom    12
 Full point group                 C1      NOp   1
 Rotational constants (GHZ):         110.5315354           3.3161497           3.2630567
 Leave Link  202 at Fri Jan  3 11:38:53 2025, MaxMem=   104857600 cpu:               0.0 elap:               0.0
 (Enter /opt/g16/l301.exe)
 Standard basis: STO-3G (5D, 7F)
 Ernie: Thresh=  0.10000D-02 Tol=  0.10000D-05 Strict=F.
    22 basis functions,    66 primitive gaussians,    22 cartesian basis functions
    18 alpha electrons       18 beta electrons
       nuclear repulsion energy        84.5114026352 Hartrees.
 IExCor=    0 DFT=F Ex=HF Corr=None ExCW=0 ScaHFX=  1.000000
 ScaDFX=  1.000000  1.000000  1.000000  1.000000 ScalE2=  1.000000  1.000000
 IRadAn=      5 IRanWt=     -1 IRanGd=            0 ICorTp=0 IEmpDi=  4
 NAtoms=    6 NActive=    6 NUniq=    6 SFac= 1.00D+00 NAtFMM=   60 NAOKFM=F Big=F
 Integral buffers will be    131072 words long.
 Raffenetti 1 integral format.
 Two-electron integral symmetry is turned off.
 Leave Link  301 at Fri Jan  3 11:38:53 2025, MaxMem=   104857600 cpu:               0.0 elap:               0.0
 (Enter /opt/g16/l402.exe)
 External calculation of energy, first and second derivatives.
 Running external command "python3 -u ../pes/h4s2_pes.py R"
         input file       "/home/jhli/scratch/g16/Gau-121895.EIn"
         output file      "/home/jhli/scratch/g16/Gau-121895.EOu"
         message file     "/home/jhli/scratch/g16/Gau-121895.EMs"
         fchk file        "/home/jhli/scratch/g16/Gau-121895.EFC"
         mat. el file     "/home/jhli/scratch/g16/Gau-121895.EUF"
 initialization done
 Recovered energy= -797.872999260     dipole=      0.000000000000      0.000000000000      0.000000000000
 Energy=    -797.872999     NIter=   0.
 Dipole moment=       0.000000       0.000000       0.000000
 Leave Link  402 at Fri Jan  3 11:38:53 2025, MaxMem=   104857600 cpu:               0.0 elap:               0.2
 (Enter /opt/g16/l716.exe)
 Dipole        = 0.00000000D+00 0.00000000D+00 0.00000000D+00
 -------------------------------------------------------------------
 Center     Atomic                   Forces (Hartrees/Bohr)
 Number     Number              X              Y              Z
 -------------------------------------------------------------------
      1        1          -0.040338012    0.004477241   -0.000046026
      2        1           0.040338022   -0.004477241    0.000046030
      3        1          -0.001032484   -0.000030157   -0.001150349
      4        1           0.001032484    0.000030157    0.001150350
      5       16          -0.009215464   -0.000463295    0.020488383
      6       16           0.009215454    0.000463296   -0.020488388
 -------------------------------------------------------------------
 Cartesian Forces:  Max     0.040338022 RMS     0.015472222
 Force constants in Cartesian coordinates: 
                1             2             3             4             5 
      1  0.796378D-01
      2  0.168316D-02  0.355892D-01
      3  0.389171D-01  0.204770D-02  0.673701D-01
      4  0.251157D-01 -0.275813D-02  0.122123D-01  0.796378D-01
      5 -0.275813D-02  0.387497D-02 -0.279258D-02  0.168318D-02  0.355892D-01
      6  0.122123D-01 -0.279258D-02 -0.138820D-01  0.389171D-01  0.204770D-02
      7 -0.513518D-02 -0.183972D-01  0.204141D-03  0.967432D-03 -0.196905D-02
      8  0.164203D-02 -0.308681D-02  0.184515D-02  0.763859D-03 -0.146504D-02
      9 -0.342482D-02 -0.133259D-01 -0.430532D-03  0.462479D-03  0.368973D-02
     10  0.967440D-03 -0.196905D-02 -0.215587D-02 -0.513518D-02 -0.183972D-01
     11  0.763850D-03 -0.146505D-02 -0.121234D-02  0.164204D-02 -0.308681D-02
     12  0.462478D-03  0.368972D-02  0.166770D-02 -0.342480D-02 -0.133259D-01
     13 -0.896460D-01  0.162616D-01 -0.585837D-01 -0.109434D-01  0.517981D-02
     14 -0.295744D-02 -0.335866D-01  0.794498D-03  0.162582D-02 -0.132653D-02
     15 -0.372790D-01  0.124838D-01 -0.466072D-01 -0.108861D-01 -0.210403D-02
     16 -0.109434D-01  0.517981D-02  0.940957D-02 -0.896459D-01  0.162616D-01
     17  0.162582D-02 -0.132653D-02 -0.681652D-03 -0.295743D-02 -0.335866D-01
     18 -0.108861D-01 -0.210403D-02 -0.811692D-02 -0.372790D-01  0.124838D-01
                6             7             8             9            10 
      6  0.673701D-01
      7 -0.215587D-02  0.146118D-01
      8 -0.121234D-02  0.123306D-01  0.274996D+00
      9  0.166771D-02  0.907288D-02  0.268932D-02  0.901033D-02
     10  0.204159D-03  0.131607D-02  0.504810D-03 -0.122670D-05  0.146118D-01
     11  0.184516D-02  0.504815D-03  0.130426D-02 -0.267199D-03  0.123306D-01
     12 -0.430530D-03 -0.122352D-05 -0.267191D-03 -0.212574D-03  0.907289D-02
     13  0.940957D-02 -0.128353D-01 -0.104834D-01 -0.523429D-02  0.107718D-02
     14 -0.681638D-03  0.501731D-02 -0.272544D+00  0.746457D-02  0.251558D-02
     15 -0.811693D-02 -0.676537D-02 -0.350854D-02 -0.884501D-02 -0.353213D-03
     16 -0.585837D-01  0.107718D-02 -0.475640D-02 -0.872410D-03 -0.128353D-01
     17  0.794497D-03  0.251558D-02  0.795937D-03 -0.249871D-03  0.501732D-02
     18 -0.466072D-01 -0.353197D-03  0.452839D-03 -0.118785D-02 -0.676537D-02
               11            12            13            14            15 
     11  0.274996D+00
     12  0.268932D-02  0.901034D-02
     13 -0.475640D-02 -0.872430D-03  0.155327D+00
     14  0.795942D-03 -0.249874D-03 -0.118985D-01  0.297596D+00
     15  0.452845D-03 -0.118785D-02  0.506692D-01 -0.666095D-02  0.442619D-01
     16 -0.104834D-01 -0.523427D-02 -0.429783D-01  0.569546D-02  0.460833D-02
     17 -0.272544D+00  0.746458D-02  0.569547D-02  0.906552D-02 -0.664477D-03
     18 -0.350852D-02 -0.884500D-02  0.460831D-02 -0.664483D-03  0.204918D-01
               16            17            18 
     16  0.155327D+00
     17 -0.118985D-01  0.297596D+00
     18  0.506691D-01 -0.666095D-02  0.442619D-01
 Leave Link  716 at Fri Jan  3 11:38:53 2025, MaxMem=   104857600 cpu:               0.0 elap:               0.0
 (Enter /opt/g16/l123.exe)
 IRC-IRC-IRC-IRC-IRC-IRC-IRC-IRC-IRC-IRC-IRC-IRC-IRC-IRC-IRC-IRC-IRC-IRC
 Reaction path inflection point has been passed.
   Previous lowest Hessian eigenvalue=   -0.0019412631
   Current lowest Hessian eigenvalue =    0.0005505194
 Pt  7 Step number   1 out of a maximum of  20
 Point Number:   7          Path Number:   1
                    CURRENT STRUCTURE
                Cartesian Coordinates (Ang):                
 ---------------------------------------------------------------------
 Center     Atomic                     Coordinates (Angstroms)
 Number     Number                        X           Y           Z
 ---------------------------------------------------------------------
      1          1                   -0.260576    0.022657    0.721684
      2          1                    0.260576   -0.022657   -0.721684
      3          1                   -1.565337   -1.254879   -0.003977
      4          1                    1.565337    1.254879    0.003977
      5         16                   -1.511752    0.087182    0.004094
      6         16                    1.511752   -0.087182   -0.004094
 ---------------------------------------------------------------------
   CHANGE IN THE REACTION COORDINATE =    0.10074
   NET REACTION COORDINATE UP TO THIS POINT =    0.70516
  # OF POINTS ALONG THE PATH =   7
  # OF STEPS =   1

 Calculating another point on the path.
 Point Number  8 in FORWARD path direction.
 Using LQA Reaction Path Following.
   LQA: T_Est iteration completed in    2 iterations.
 IRC-IRC-IRC-IRC-IRC-IRC-IRC-IRC-IRC-IRC-IRC-IRC-IRC-IRC-IRC-IRC-IRC-IRC
 Leave Link  123 at Fri Jan  3 11:38:53 2025, MaxMem=   104857600 cpu:               0.0 elap:               0.0
 (Enter /opt/g16/l202.exe)
                          Input orientation:                          
 ---------------------------------------------------------------------
 Center     Atomic      Atomic             Coordinates (Angstroms)
 Number     Number       Type             X           Y           Z
 ---------------------------------------------------------------------
      1          1           0       -0.297623    0.026957    0.722496
      2          1           0        0.297623   -0.026957   -0.722496
      3          1           0       -1.566456   -1.254863   -0.005129
      4          1           0        1.566456    1.254863    0.005129
      5         16           0       -1.512116    0.087168    0.004686
      6         16           0        1.512116   -0.087168   -0.004686
 ---------------------------------------------------------------------
                    Distance matrix (angstroms):
                    1          2          3          4          5
     1  H    0.000000
     2  H    1.563722   0.000000
     3  H    1.944849   2.344602   0.000000
     4  H    2.344602   1.944849   4.014221   0.000000
     5  S    1.412044   1.953708   1.343166   3.292586   0.000000
[...]

 Calculating another point on the path.
 Point Number 93 in REVERSE path direction.
 Using LQA Reaction Path Following.
   LQA: T_Est iteration completed in    4 iterations.
 IRC-IRC-IRC-IRC-IRC-IRC-IRC-IRC-IRC-IRC-IRC-IRC-IRC-IRC-IRC-IRC-IRC-IRC
 Leave Link  123 at Fri Jan  3 11:39:36 2025, MaxMem=   104857600 cpu:               0.0 elap:               0.0
 (Enter /opt/g16/l202.exe)
                          Input orientation:                          
 ---------------------------------------------------------------------
 Center     Atomic      Atomic             Coordinates (Angstroms)
 Number     Number       Type             X           Y           Z
 ---------------------------------------------------------------------
      1          1           0        0.969744   -0.034002    0.873479
      2          1           0       -0.969744    0.034002   -0.873479
      3          1           0       -2.163484   -1.226926   -0.024440
      4          1           0        2.163484    1.226926    0.024440
      5         16           0       -1.999660    0.102533   -0.018528
      6         16           0        1.999660   -0.102533    0.018528
 ---------------------------------------------------------------------
                    Distance matrix (angstroms):
                    1          2          3          4          5
     1  H    0.000000
     2  H    2.611149   0.000000
     3  H    3.470799   1.932827   0.000000
     4  H    1.932827   3.470799   4.974579   0.000000
     5  S    3.103495   1.340285   1.339527   4.312525   0.000000
     6  S    1.340285   3.103495   4.312525   1.339527   4.004746
                    6
     6  S    0.000000
 Symmetry turned off by external request.
 Stoichiometry    H4S2
 Framework group  C1[X(H4S2)]
 Deg. of freedom    12
 Full point group                 C1      NOp   1
 Rotational constants (GHZ):         101.6546595           1.8800379           1.8662825
 Leave Link  202 at Fri Jan  3 11:39:36 2025, MaxMem=   104857600 cpu:               0.0 elap:               0.0
 (Enter /opt/g16/l301.exe)
 Standard basis: STO-3G (5D, 7F)
 Ernie: Thresh=  0.10000D-02 Tol=  0.10000D-05 Strict=F.
    22 basis functions,    66 primitive gaussians,    22 cartesian basis functions
    18 alpha electrons       18 beta electrons
       nuclear repulsion energy        69.6475953643 Hartrees.
 IExCor=    0 DFT=F Ex=HF Corr=None ExCW=0 ScaHFX=  1.000000
 ScaDFX=  1.000000  1.000000  1.000000  1.000000 ScalE2=  1.000000  1.000000
 IRadAn=      5 IRanWt=     -1 IRanGd=            0 ICorTp=0 IEmpDi=  4
 NAtoms=    6 NActive=    6 NUniq=    6 SFac= 1.00D+00 NAtFMM=   60 NAOKFM=F Big=F
 Integral buffers will be    131072 words long.
 Raffenetti 1 integral format.
 Two-electron integral symmetry is turned off.
 Leave Link  301 at Fri Jan  3 11:39:36 2025, MaxMem=   104857600 cpu:               0.0 elap:               0.0
 (Enter /opt/g16/l402.exe)
 External calculation of energy, first and second derivatives.
 Running external command "python3 -u ../pes/h4s2_pes.py R"
         input file       "/home/jhli/scratch/g16/Gau-121895.EIn"
         output file      "/home/jhli/scratch/g16/Gau-121895.EOu"
         message file     "/home/jhli/scratch/g16/Gau-121895.EMs"
         fchk file        "/home/jhli/scratch/g16/Gau-121895.EFC"
         mat. el file     "/home/jhli/scratch/g16/Gau-121895.EUF"
 initialization done
 Recovered energy= -797.920020496     dipole=      0.000000000000      0.000000000000      0.000000000000
 Energy=    -797.920020     NIter=   0.
 Dipole moment=       0.000000       0.000000       0.000000
 Leave Link  402 at Fri Jan  3 11:39:36 2025, MaxMem=   104857600 cpu:               0.0 elap:               0.2
 (Enter /opt/g16/l716.exe)
 Dipole        = 0.00000000D+00 0.00000000D+00 0.00000000D+00
 -------------------------------------------------------------------
 Center     Atomic                   Forces (Hartrees/Bohr)
 Number     Number              X              Y              Z
 -------------------------------------------------------------------
      1        1           0.000021763    0.000020070   -0.000009428
      2        1          -0.000021763   -0.000020070    0.000009428
      3        1          -0.000040781    0.000058300   -0.000014852
      4        1           0.000040781   -0.000058301    0.000014852
      5       16          -0.000383894   -0.000062554   -0.000006874
      6       16           0.000383894    0.000062555    0.000006874
 -------------------------------------------------------------------
 Cartesian Forces:  Max     0.000383894 RMS     0.000132322
 Force constants in Cartesian coordinates: 
                1             2             3             4             5 
      1  0.162156D+00
      2 -0.535357D-02  0.280233D-01
      3 -0.133299D+00  0.732350D-02  0.112237D+00
      4 -0.477427D-03  0.414322D-04 -0.844569D-03  0.162156D+00
      5  0.414321D-04  0.140352D-03 -0.640390D-04 -0.535358D-02  0.280233D-01
      6 -0.844569D-03 -0.640399D-04 -0.809298D-03 -0.133299D+00  0.732351D-02
      7  0.282900D-04 -0.317017D-03  0.119254D-03 -0.405140D-02 -0.209717D-01
      8 -0.173616D-03 -0.385007D-04 -0.518844D-04  0.972848D-03 -0.150118D-02
      9  0.384531D-04 -0.280270D-03 -0.650619D-04  0.347909D-02  0.172584D-01
     10 -0.405140D-02 -0.209717D-01  0.106430D-02  0.282877D-04 -0.317019D-03
     11  0.972849D-03 -0.150118D-02 -0.871469D-03 -0.173615D-03 -0.385002D-04
     12  0.347909D-02  0.172584D-01 -0.102328D-02  0.384527D-04 -0.280270D-03
     13 -0.206660D-03  0.287191D-03  0.607850D-03 -0.157448D+00  0.263128D-01
     14  0.169080D-03 -0.376675D-03  0.140322D-03  0.434486D-02 -0.262472D-01
     15  0.281891D-03  0.343948D-03  0.237591D-04  0.130344D+00 -0.245800D-01
     16 -0.157448D+00  0.263127D-01  0.132352D+00 -0.206658D-03  0.287194D-03
     17  0.434485D-02 -0.262472D-01 -0.647745D-02  0.169080D-03 -0.376675D-03
     18  0.130344D+00 -0.245800D-01 -0.110362D+00  0.281890D-03  0.343947D-03
                6             7             8             9            10 
      6  0.112237D+00
      7  0.106430D-02  0.204174D-01
      8 -0.871469D-03  0.343981D-01  0.269719D+00
      9 -0.102328D-02 -0.131293D-01  0.336822D-03  0.113360D-01
     10  0.119255D-03  0.274650D-03  0.524674D-04  0.612401D-04  0.204174D-01
     11 -0.518838D-04  0.524664D-04  0.190948D-03  0.197581D-04  0.343981D-01
     12 -0.650635D-04  0.612398D-04  0.197579D-04 -0.523855D-04 -0.131293D-01
     13  0.132352D+00 -0.162518D-01 -0.351723D-01  0.966443D-02 -0.416301D-03
     14 -0.647745D-02 -0.135473D-01 -0.268210D+00 -0.174194D-01  0.386139D-03
     15 -0.110362D+00  0.120081D-01  0.609018D-03 -0.103140D-01 -0.124754D-03
     16  0.607851D-03 -0.416299D-03 -0.777411D-04 -0.114510D-03 -0.162518D-01
     17  0.140322D-03  0.386137D-03 -0.160268D-03  0.835594D-04 -0.135473D-01
     18  0.237603D-04 -0.124755D-03 -0.415600D-04  0.119722D-03  0.120081D-01
               11            12            13            14            15 
     11  0.269719D+00
     12  0.336829D-03  0.113360D-01
     13 -0.777423D-04 -0.114509D-03  0.176342D+00
     14 -0.160272D-03  0.835591D-04  0.892034D-02  0.294180D+00
     15 -0.415611D-04  0.119722D-03 -0.142111D+00  0.237765D-01  0.120433D+00
     16 -0.351723D-01  0.966443D-02 -0.201937D-02 -0.272015D-03 -0.397921D-03
     17 -0.268210D+00 -0.174194D-01 -0.272014D-03  0.814991D-03 -0.105742D-03
     18  0.609013D-03 -0.103140D-01 -0.397921D-03 -0.105743D-03  0.982812D-04
               16            17            18 
     16  0.176342D+00
     17  0.892034D-02  0.294180D+00
     18 -0.142111D+00  0.237765D-01  0.120433D+00
 Leave Link  716 at Fri Jan  3 11:39:36 2025, MaxMem=   104857600 cpu:               0.0 elap:               0.0
 (Enter /opt/g16/l123.exe)
 IRC-IRC-IRC-IRC-IRC-IRC-IRC-IRC-IRC-IRC-IRC-IRC-IRC-IRC-IRC-IRC-IRC-IRC
 Pt186 Step number   1 out of a maximum of  20
 Point Number:  93          Path Number:   2
                    CURRENT STRUCTURE
                Cartesian Coordinates (Ang):                
 ---------------------------------------------------------------------
 Center     Atomic                     Coordinates (Angstroms)
 Number     Number                        X           Y           Z
 ---------------------------------------------------------------------
      1          1                    0.969744   -0.034002    0.873479
      2          1                   -0.969744    0.034002   -0.873479
      3          1                   -2.163484   -1.226926   -0.024440
      4          1                    2.163484    1.226926    0.024440
      5         16                   -1.999660    0.102533   -0.018528
      6         16                    1.999660   -0.102533    0.018528
 ---------------------------------------------------------------------
   CHANGE IN THE REACTION COORDINATE =    0.10071
   NET REACTION COORDINATE UP TO THIS POINT =    9.36787
  # OF POINTS ALONG THE PATH = 186
  # OF STEPS =   1

 PES minimum detected on this side of the pathway.
    Magnitude of the gradient =      0.0001479
 Calculation of REVERSE path complete.
 Reaction path calculation complete.
 
 Energies reported relative to the TS energy of        -797.842673
 --------------------------------------------------------------------------
    Summary of reaction path following
 --------------------------------------------------------------------------
                        Energy    RxCoord
   1                   -0.07735  -9.36787
   2                   -0.07733  -9.26716
   3                   -0.07732  -9.16645
   4                   -0.07730  -9.06574
   5                   -0.07728  -8.96502
   6                   -0.07726  -8.86430
   7                   -0.07723  -8.76358
   8                   -0.07721  -8.66285
   9                   -0.07718  -8.56212
  10                   -0.07715  -8.46139
  11                   -0.07711  -8.36066
  12                   -0.07708  -8.25992
  13                   -0.07704  -8.15919
  14                   -0.07700  -8.05845
  15                   -0.07696  -7.95771
  16                   -0.07691  -7.85698
  17                   -0.07687  -7.75624
  18                   -0.07682  -7.65550
  19                   -0.07676  -7.55476
  20                   -0.07670  -7.45402
  21                   -0.07664  -7.35328
  22                   -0.07658  -7.25254
  23                   -0.07651  -7.15180
  24                   -0.07644  -7.05106
  25                   -0.07637  -6.95033
  26                   -0.07629  -6.84959
  27                   -0.07620  -6.74885
  28                   -0.07612  -6.64811
  29                   -0.07602  -6.54737
  30                   -0.07593  -6.44663
  31                   -0.07582  -6.34589
  32                   -0.07571  -6.24515
  33                   -0.07560  -6.14441
  34                   -0.07548  -6.04367
  35                   -0.07535  -5.94293
  36                   -0.07522  -5.84219
  37                   -0.07508  -5.74145
  38                   -0.07493  -5.64071
  39                   -0.07478  -5.53997
  40                   -0.07462  -5.43923
  41                   -0.07445  -5.33849
  42                   -0.07427  -5.23775
  43                   -0.07408  -5.13701
  44                   -0.07388  -5.03627
  45                   -0.07368  -4.93553
  46                   -0.07346  -4.83478
  47                   -0.07324  -4.73404
  48                   -0.07300  -4.63330
  49                   -0.07276  -4.53256
  50                   -0.07250  -4.43182
  51                   -0.07223  -4.33108
  52                   -0.07195  -4.23034
  53                   -0.07165  -4.12960
  54                   -0.07135  -4.02886
  55                   -0.07103  -3.92812
  56                   -0.07069  -3.82738
  57                   -0.07034  -3.72664
  58                   -0.06998  -3.62590
  59                   -0.06960  -3.52516
  60                   -0.06920  -3.42442
  61                   -0.06878  -3.32369
  62                   -0.06835  -3.22295
  63                   -0.06789  -3.12221
  64                   -0.06741  -3.02147
  65                   -0.06691  -2.92074
  66                   -0.06638  -2.82000
  67                   -0.06583  -2.71926
  68                   -0.06524  -2.61853
  69                   -0.06462  -2.51779
  70                   -0.06396  -2.41706
  71                   -0.06325  -2.31633
  72                   -0.06250  -2.21560
  73                   -0.06169  -2.11487
  74                   -0.06081  -2.01414
  75                   -0.05986  -1.91341
  76                   -0.05881  -1.81269
  77                   -0.05766  -1.71196
  78                   -0.05638  -1.61124
  79                   -0.05495  -1.51051
  80                   -0.05333  -1.40979
  81                   -0.05151  -1.30906
  82                   -0.04943  -1.20835
  83                   -0.04704  -1.10772
  84                   -0.04415  -1.00719
  85                   -0.04045  -0.90659
  86                   -0.03580  -0.80589
  87                   -0.03033  -0.70516
  88                   -0.02433  -0.60443
  89                   -0.01821  -0.50369
  90                   -0.01239  -0.40295
  91                   -0.00731  -0.30222
  92                   -0.00336  -0.20148
  93                   -0.00086  -0.10076
  94                    0.00000   0.00000
  95                   -0.00086   0.10076
  96                   -0.00336   0.20148
  97                   -0.00731   0.30222
  98                   -0.01239   0.40295
  99                   -0.01821   0.50369
 100                   -0.02433   0.60443
 101                   -0.03033   0.70516
 102                   -0.03580   0.80589
 103                   -0.04045   0.90659
 104                   -0.04415   1.00719
 105                   -0.04704   1.10772
 106                   -0.04943   1.20835
 107                   -0.05151   1.30906
 108                   -0.05333   1.40979
 109                   -0.05495   1.51051
 110                   -0.05638   1.61124
 111                   -0.05766   1.71196
 112                   -0.05881   1.81269
 113                   -0.05986   1.91341
 114                   -0.06081   2.01414
 115                   -0.06169   2.11487
 116                   -0.06250   2.21560
 117                   -0.06325   2.31633
 118                   -0.06396   2.41706
 119                   -0.06462   2.51779
 120                   -0.06524   2.61853
 121                   -0.06583   2.71926
 122                   -0.06638   2.82000
 123                   -0.06691   2.92074
 124                   -0.06741   3.02147
 125                   -0.06789   3.12221
 126                   -0.06835   3.22295
 127                   -0.06878   3.32369
 128                   -0.06920   3.42442
 129                   -0.06960   3.52516
 130                   -0.06998   3.62590
 131                   -0.07034   3.72664
 132                   -0.07069   3.82738
 133                   -0.07103   3.92812
 134                   -0.07135   4.02886
 135                   -0.07165   4.12960
 136                   -0.07195   4.23034
 137                   -0.07223   4.33108
 138                   -0.07250   4.43182
 139                   -0.07276   4.53256
 140                   -0.07300   4.63330
 141                   -0.07324   4.73404
 142                   -0.07346   4.83478
 143                   -0.07368   4.93553
 144                   -0.07388   5.03627
 145                   -0.07408   5.13701
 146                   -0.07427   5.23775
 147                   -0.07445   5.33849
 148                   -0.07462   5.43923
 149                   -0.07478   5.53997
 150                   -0.07493   5.64071
 151                   -0.07508   5.74145
 152                   -0.07522   5.84219
 153                   -0.07535   5.94293
 154                   -0.07548   6.04367
 155                   -0.07560   6.14441
 156                   -0.07571   6.24515
 157                   -0.07582   6.34589
 158                   -0.07593   6.44663
 159                   -0.07602   6.54737
 160                   -0.07612   6.64811
 161                   -0.07620   6.74885
 162                   -0.07629   6.84959
 163                   -0.07637   6.95033
 164                   -0.07644   7.05106
 165                   -0.07651   7.15180
 166                   -0.07658   7.25254
 167                   -0.07664   7.35328
 168                   -0.07670   7.45402
 169                   -0.07676   7.55476
 170                   -0.07682   7.65550
 171                   -0.07687   7.75624
 172                   -0.07691   7.85698
 173                   -0.07696   7.95771
 174                   -0.07700   8.05845
 175                   -0.07704   8.15919
 176                   -0.07708   8.25992
 177                   -0.07711   8.36066
 178                   -0.07715   8.46139
 179                   -0.07718   8.56212
 180                   -0.07721   8.66285
 181                   -0.07723   8.76358
 182                   -0.07726   8.86430
 183                   -0.07728   8.96502
 184                   -0.07730   9.06574
 185                   -0.07732   9.16645
 186                   -0.07733   9.26716
 187                   -0.07735   9.36787
 --------------------------------------------------------------------------
 
 Total number of points:                  186
 Total number of gradient calculations:   187
 Total number of Hessian calculations:    187
 IRC-IRC-IRC-IRC-IRC-IRC-IRC-IRC-IRC-IRC-IRC-IRC-IRC-IRC-IRC-IRC-IRC-IRC
 Leave Link  123 at Fri Jan  3 11:39:36 2025, MaxMem=   104857600 cpu:               0.0 elap:               0.0
 (Enter /opt/g16/l202.exe)
                          Input orientation:                          
 ---------------------------------------------------------------------
 Center     Atomic      Atomic             Coordinates (Angstroms)
 Number     Number       Type             X           Y           Z
 ---------------------------------------------------------------------
      1          1           0        0.969744   -0.034002    0.873479
      2          1           0       -0.969744    0.034002   -0.873479
      3          1           0       -2.163484   -1.226926   -0.024440
      4          1           0        2.163484    1.226926    0.024440
      5         16           0       -1.999660    0.102533   -0.018528
      6         16           0        1.999660   -0.102533    0.018528
 ---------------------------------------------------------------------
                    Distance matrix (angstroms):
                    1          2          3          4          5
     1  H    0.000000
     2  H    2.611149   0.000000
     3  H    3.470799   1.932827   0.000000
     4  H    1.932827   3.470799   4.974579   0.000000
     5  S    3.103495   1.340285   1.339527   4.312525   0.000000
     6  S    1.340285   3.103495   4.312525   1.339527   4.004746
                    6
     6  S    0.000000
 Symmetry turned off by external request.
 Stoichiometry    H4S2
 Framework group  C1[X(H4S2)]
 Deg. of freedom    12
 Full point group                 C1      NOp   1
 Rotational constants (GHZ):         101.6546595           1.8800379           1.8662825
 Leave Link  202 at Fri Jan  3 11:39:36 2025, MaxMem=   104857600 cpu:               0.0 elap:               0.0
 (Enter /opt/g16/l601.exe)
 Leave Link  601 at Fri Jan  3 11:39:36 2025, MaxMem=   104857600 cpu:               0.0 elap:               0.0
 (Enter /opt/g16/l9999.exe)

 This type of calculation cannot be archived.


 THERE IS MORE TO LIFE THAN INCREASING ITS SPEED.

                                       -- GANDHI
 Job cpu time:       0 days  0 hours  0 minutes 11.3 seconds.
 Elapsed time:       0 days  0 hours  0 minutes 43.3 seconds.
 File lengths (MBytes):  RWF=      6 Int=      0 D2E=      0 Chk=      2 Scr=      1
 Normal termination of Gaussian 16 at Fri Jan  3 11:39:36 2025.
