 Entering Gaussian System, Link 0=g16
 Initial command:
 /opt/g16/l1.exe "/home/jhli/scratch/g16/Gau-123690.inp" -scrdir="/home/jhli/scratch/g16/"
 Entering Link 1 = /opt/g16/l1.exe PID=    123693.
  
 Copyright (c) 1988-2019, Gaussian, Inc.  All Rights Reserved.
  
 This is part of the Gaussian(R) 16 program.  It is based on
 the Gaussian(R) 09 system (copyright 2009, Gaussian, Inc.),
 the Gaussian(R) 03 system (copyright 2003, Gaussian, Inc.),
 the Gaussian(R) 98 system (copyright 1998, Gaussian, Inc.),
 the Gaussian(R) 94 system (copyright 1995, Gaussian, Inc.),
 the Gaussian 92(TM) system (copyright 1992, Gaussian, Inc.),
 the Gaussian 90(TM) system (copyright 1990, Gaussian, Inc.),
 the Gaussian 88(TM) system (copyright 1988, Gaussian, Inc.),
 the Gaussian 86(TM) system (copyright 1986, Carnegie Mellon
 University), and the Gaussian 82(TM) system (copyright 1983,
 Carnegie Mellon University). Gaussian is a federally registered
 trademark of Gaussian, Inc.
  
 This software contains proprietary and confidential information,
 including trade secrets, belonging to Gaussian, Inc.
  
 This software is provided under written license and may be
 used, copied, transmitted, or stored only in accord with that
 written license.
  
 The following legend is applicable only to US Government
 contracts under FAR:
  
                    RESTRICTED RIGHTS LEGEND
  
 Use, reproduction and disclosure by the US Government is
 subject to restrictions as set forth in subparagraphs (a)
 and (c) of the Commercial Computer Software - Restricted
 Rights clause in FAR 52.227-19.
  
 Gaussian, Inc.
 340 Quinnipiac St., Bldg. 40, Wallingford CT 06492
  
  
 ---------------------------------------------------------------
 Warning -- This program may not be used in any manner that
 competes with the business of Gaussian, Inc. or will provide
 assistance to any competitor of Gaussian, Inc.  The licensee
 of this program is prohibited from giving any competitor of
 Gaussian, Inc. access to this program.  By using this program,
 the user acknowledges that Gaussian, Inc. is engaged in the
 business of creating and licensing software in the field of
 computational chemistry and represents and warrants to the
 licensee that it is not a competitor of Gaussian, Inc. and that
 it will not use this program in any manner prohibited above.
 ---------------------------------------------------------------
  

 Cite this work as:
 Gaussian 16, Revision C.01,
 M. J. Frisch, G. W. Trucks, H. B. Schlegel, G. E. Scuseria, 
 M. A. Robb, J. R. Cheeseman, G. Scalmani, V. Barone, 
 G. A. Petersson, H. Nakatsuji, X. Li, M. Caricato, A. V. Marenich, 
 J. Bloino, B. G. Janesko, R. Gomperts, B. Mennucci, H. P. Hratchian, 
 J. V. Ortiz, A. F. Izmaylov, J. L. Sonnenberg, D. Williams-Young, 
 F. Ding, F. Lipparini, F. Egidi, J. Goings, B. Peng, A. Petrone, 
 T. Henderson, D. Ranasinghe, V. G. Zakrzewski, J. Gao, N. Rega, 
 G. Zheng, W. Liang, M. Hada, M. Ehara, K. Toyota, R. Fukuda, 
 J. Hasegawa, M. Ishida, T. Nakajima, Y. Honda, O. Kitao, H. Nakai, 
 T. Vreven, K. Throssell, J. A. Montgomery, Jr., J. E. Peralta, 
 F. Ogliaro, M. J. Bearpark, J. J. Heyd, E. N. Brothers, K. N. Kudin, 
 V. N. Staroverov, T. A. Keith, R. Kobayashi, J. Normand, 
 K. Raghavachari, A. P. Rendell, J. C. Burant, S. S. Iyengar, 
 J. Tomasi, M. Cossi, J. M. Millam, M. Klene, C. Adamo, R. Cammi, 
 J. W. Ochterski, R. L. Martin, K. Morokuma, O. Farkas, 
 J. B. Foresman, and D. J. Fox, Gaussian, Inc., Wallingford CT, 2019.
 
 ******************************************
 Gaussian 16:  ES64L-G16RevC.01  3-Jul-2019
                 3-Jan-2025 
 ******************************************
 %nproc=1
 Will use up to    1 processors via shared memory.
 %oldchk=ts-4-opt-freq.chk
 Copying data from "ts-4-opt-freq.chk" to current chk file "/home/jhli/scratch/g16/Gau-123693.chk"
 IOpt=  2 FromEx=T IUOpen= 4 IOptOp= 5 NList=   0 IFRang= 0 IUIn= 4 IUOut= 2.
 ----------------------------------------------------------------------
 #p external="python3 -u ../pes/h4s2_pes.py" irc=(calcall,stepsize=10,m
 axpoint=100,lqa) geom=allcheck
 ----------------------------------------------------------------------
 1/10=4,18=10,26=1,29=7,38=1,39=10,42=100,44=3,45=2,71=1,172=1/1,23;
 2/12=2,29=1,40=1/2;
 3/11=9,14=-4,25=1,30=1,41=9900000,43=2,71=2,140=1/1;
 4/20=17,22=2,24=3,113=1,114=1/2;
 6/7=2,8=2,9=2,10=2,18=1/1;
 7/25=1,44=-1/16;
 1/10=4,18=10,26=1,39=10,42=100,44=3,45=2,71=1/23(2);
 2/29=1/2;
 99/5=20/99;
 2/29=1/2;
 3/11=9,14=-2,25=1,30=1,41=9900000,43=2,71=2,140=1/1;
 4/16=2,20=17,22=2,24=3,113=1,114=1/2;
 7/25=1,44=-1/16;
 1/10=4,18=10,26=1,39=10,42=100,44=3,45=2,71=1/23(-4);
 2/29=1/2;
 6/7=2,8=2,9=2,10=2,18=1/1;
 99/5=20/99;
 Leave Link    1 at Fri Jan  3 11:42:00 2025, MaxMem=   104857600 cpu:               0.0 elap:               0.0
 (Enter /opt/g16/l101.exe)
 Structure from the checkpoint file:  "/home/jhli/scratch/g16/Gau-123693.chk"
 ----
 ts-4
 ----
 Charge =  0 Multiplicity = 1
 Redundant internal coordinates found in file.  (old form).
 H,0,1.51258414,1.26837395,-0.00000116
 H,0,-1.5125888806,1.268367888,-0.00000116
 H,0,0.0000003432,-0.08575367,0.72973446
 H,0,0.0000003432,-0.0857543,-0.72973278
 S,0,1.51504699,-0.07378892,0.00000028
 S,0,-1.5150463516,-0.0737949918,0.00000028
 Recover connectivity data from disk.
 ITRead=  0  0  0  0  0  0
 MicOpt= -1 -1 -1 -1 -1 -1
 NAtoms=      6 NQM=        6 NQMF=       0 NMMI=      0 NMMIF=      0
                NMic=       0 NMicF=      0.
                    Isotopes and Nuclear Properties:
 (Nuclear quadrupole moments (NQMom) in fm**2, nuclear magnetic moments (NMagM)
  in nuclear magnetons)

  Atom         1           2           3           4           5           6
 IAtWgt=           1           1           1           1          32          32
 AtmWgt=   1.0078250   1.0078250   1.0078250   1.0078250  31.9720718  31.9720718
 NucSpn=           1           1           1           1           0           0
 AtZEff=   1.0000000   1.0000000   1.0000000   1.0000000  13.6000000  13.6000000
 NQMom=    0.0000000   0.0000000   0.0000000   0.0000000   0.0000000   0.0000000
 NMagM=    2.7928460   2.7928460   2.7928460   2.7928460   0.0000000   0.0000000
 AtZNuc=   1.0000000   1.0000000   1.0000000   1.0000000  16.0000000  16.0000000
 Leave Link  101 at Fri Jan  3 11:42:00 2025, MaxMem=   104857600 cpu:               0.1 elap:               0.1
 (Enter /opt/g16/l123.exe)
 IRC-IRC-IRC-IRC-IRC-IRC-IRC-IRC-IRC-IRC-IRC-IRC-IRC-IRC-IRC-IRC-IRC-IRC
 ------------------------------------------------------------------------
 INPUT DATA FOR L123
 ------------------------------------------------------------------------
 GENERAL PARAMETERS:
 Follow reaction path in both directions.
 Maximum points per path      = 100
 Step size                    =   0.100 bohr
 Integration scheme           = LQA                                 
 Initial Hessian              = CalcFC
 Hessian evaluation           = Analytic at all predictor steps
                              = Update at all corrector steps
 Hessian updating method      = Bofill                              
 ------------------------------------------------------------------------
 IRC-IRC-IRC-IRC-IRC-IRC-IRC-IRC-IRC-IRC-IRC-IRC-IRC-IRC-IRC-IRC-IRC-IRC
 Leave Link  123 at Fri Jan  3 11:42:00 2025, MaxMem=   104857600 cpu:               0.0 elap:               0.0
 (Enter /opt/g16/l202.exe)
                          Input orientation:                          
 ---------------------------------------------------------------------
 Center     Atomic      Atomic             Coordinates (Angstroms)
 Number     Number       Type             X           Y           Z
 ---------------------------------------------------------------------
      1          1           0        1.512584    1.268374   -0.000001
      2          1           0       -1.512589    1.268368   -0.000001
      3          1           0        0.000000   -0.085754    0.729734
      4          1           0        0.000000   -0.085754   -0.729733
      5         16           0        1.515047   -0.073789    0.000000
      6         16           0       -1.515046   -0.073795    0.000000
 ---------------------------------------------------------------------
                    Distance matrix (angstroms):
                    1          2          3          4          5
     1  H    0.000000
     2  H    3.025173   0.000000
     3  H    2.157333   2.157333   0.000000
     4  H    2.157332   2.157332   1.459467   0.000000
     5  S    1.342165   3.311792   1.681672   1.681672   0.000000
     6  S    3.311792   1.342165   1.681672   1.681672   3.030093
                    6
     6  S    0.000000
 Symmetry turned off by external request.
 Stoichiometry    H4S2
 Framework group  CS[SG(H2),X(H2S2)]
 Deg. of freedom     7
 Full point group                 CS      NOp   2
 Rotational constants (GHZ):         109.8917311           3.3148250           3.2623534
 Leave Link  202 at Fri Jan  3 11:42:00 2025, MaxMem=   104857600 cpu:               0.0 elap:               0.0
 (Enter /opt/g16/l301.exe)
 Standard basis: STO-3G (5D, 7F)
 Ernie: Thresh=  0.10000D-02 Tol=  0.10000D-05 Strict=F.
    22 basis functions,    66 primitive gaussians,    22 cartesian basis functions
    18 alpha electrons       18 beta electrons
       nuclear repulsion energy        84.0955769283 Hartrees.
 IExCor=    0 DFT=F Ex=HF Corr=None ExCW=0 ScaHFX=  1.000000
 ScaDFX=  1.000000  1.000000  1.000000  1.000000 ScalE2=  1.000000  1.000000
 IRadAn=      5 IRanWt=     -1 IRanGd=            0 ICorTp=0 IEmpDi=  4
 NAtoms=    6 NActive=    6 NUniq=    6 SFac= 1.00D+00 NAtFMM=   60 NAOKFM=F Big=F
 Integral buffers will be    131072 words long.
 Raffenetti 1 integral format.
 Two-electron integral symmetry is turned off.
 Leave Link  301 at Fri Jan  3 11:42:00 2025, MaxMem=   104857600 cpu:               0.0 elap:               0.0
 (Enter /opt/g16/l402.exe)
 External calculation of energy, first and second derivatives.
 Running external command "python3 -u ../pes/h4s2_pes.py R"
         input file       "/home/jhli/scratch/g16/Gau-123693.EIn"
         output file      "/home/jhli/scratch/g16/Gau-123693.EOu"
         message file     "/home/jhli/scratch/g16/Gau-123693.EMs"
         fchk file        "/home/jhli/scratch/g16/Gau-123693.EFC"
         mat. el file     "/home/jhli/scratch/g16/Gau-123693.EUF"
 initialization done
 Recovered energy= -797.842477382     dipole=      0.000000000000      0.000000000000      0.000000000000
 Energy=    -797.842477     NIter=   0.
 Dipole moment=       0.000000       0.000000       0.000000
 Leave Link  402 at Fri Jan  3 11:42:00 2025, MaxMem=   104857600 cpu:               0.0 elap:               0.2
 (Enter /opt/g16/l601.exe)
 Leave Link  601 at Fri Jan  3 11:42:00 2025, MaxMem=   104857600 cpu:               0.0 elap:               0.0
 (Enter /opt/g16/l716.exe)
 Dipole        = 0.00000000D+00 0.00000000D+00 0.00000000D+00
 -------------------------------------------------------------------
 Center     Atomic                   Forces (Hartrees/Bohr)
 Number     Number              X              Y              Z
 -------------------------------------------------------------------
      1        1           0.000004886   -0.000156084    0.000000015
      2        1          -0.000004885   -0.000156084    0.000000015
      3        1          -0.000000000   -0.000018168    0.000035607
      4        1           0.000000000   -0.000018222   -0.000035674
      5       16           0.000240862    0.000174182    0.000000019
      6       16          -0.000240863    0.000174181    0.000000019
 -------------------------------------------------------------------
 Cartesian Forces:  Max     0.000240863 RMS     0.000112715
 Force constants in Cartesian coordinates: 
                1             2             3             4             5 
      1  0.124195D-01
      2  0.126164D-02  0.270136D+00
      3  0.000000D+00  0.000000D+00  0.649735D-02
      4 -0.477388D-03 -0.207345D-02  0.000000D+00  0.124195D-01
      5  0.207345D-02 -0.308065D-04  0.000000D+00 -0.126269D-02  0.270136D+00
      6  0.000000D+00  0.000000D+00  0.254769D-02  0.000000D+00  0.000000D+00
      7 -0.957210D-03  0.127154D-02  0.978715D-03 -0.957239D-03 -0.127155D-02
      8 -0.102927D-01 -0.767147D-03  0.822959D-02  0.102927D-01 -0.767107D-03
      9 -0.105059D-02  0.172232D-02  0.350395D-04  0.105058D-02  0.172231D-02
     10 -0.957247D-03  0.127153D-02 -0.978725D-03 -0.957285D-03 -0.127155D-02
     11 -0.102927D-01 -0.767158D-03 -0.822959D-02  0.102927D-01 -0.767125D-03
     12  0.105060D-02 -0.172232D-02  0.350428D-04 -0.105059D-02 -0.172232D-02
     13 -0.101695D-01 -0.239841D-02  0.000000D+00  0.148236D-03 -0.670862D-03
     14  0.142854D-01 -0.269521D+00  0.000000D+00 -0.296413D-02  0.947545D-03
     15  0.000000D+00  0.000000D+00 -0.605805D-02  0.000000D+00  0.000000D+00
     16  0.148223D-03  0.670851D-03  0.000000D+00 -0.101695D-01  0.239946D-02
     17  0.296412D-02  0.947561D-03  0.000000D+00 -0.142843D-01 -0.269521D+00
     18  0.000000D+00  0.000000D+00 -0.305608D-02  0.000000D+00  0.000000D+00
                6             7             8             9            10 
      6  0.649734D-02
      7 -0.978742D-03 -0.725888D-01
      8  0.822960D-02  0.000000D+00  0.369106D-01
      9  0.350315D-04  0.000000D+00 -0.259058D-02  0.523622D-01
     10  0.978748D-03  0.889816D-01  0.000000D+00  0.000000D+00 -0.725886D-01
     11 -0.822959D-02  0.000000D+00  0.665643D-02 -0.217761D-02  0.000000D+00
     12  0.350422D-04  0.000000D+00  0.217757D-02 -0.201549D-01  0.000000D+00
     13  0.000000D+00 -0.722717D-02  0.785355D-02  0.248949D-01 -0.722718D-02
     14  0.000000D+00 -0.218551D-02 -0.210149D-01  0.663219D-03 -0.218552D-02
     15 -0.305608D-02 -0.398948D-01 -0.802240D-02 -0.161396D-01  0.398947D-01
     16  0.000000D+00 -0.722716D-02 -0.785350D-02 -0.248949D-01 -0.722718D-02
     17  0.000000D+00  0.218557D-02 -0.210149D-01  0.663127D-03  0.218558D-02
     18 -0.605805D-02  0.398948D-01 -0.802223D-02 -0.161396D-01 -0.398948D-01
               11            12            13            14            15 
     11  0.369107D-01
     12  0.259060D-02  0.523623D-01
     13  0.785353D-02 -0.248949D-01  0.111717D+00
     14 -0.210149D-01 -0.663213D-03 -0.978817D-02  0.295308D+00
     15  0.802241D-02 -0.161396D-01  0.000000D+00  0.000000D+00  0.293256D-02
     16 -0.785348D-02  0.248949D-01 -0.872714D-01  0.283815D-02  0.000000D+00
     17 -0.210149D-01 -0.663117D-03 -0.283857D-02  0.152934D-01  0.000000D+00
     18  0.802224D-02 -0.161396D-01  0.000000D+00  0.000000D+00  0.384616D-01
               16            17            18 
     16  0.111717D+00
     17  0.978745D-02  0.295308D+00
     18  0.000000D+00  0.000000D+00  0.293255D-02
 Leave Link  716 at Fri Jan  3 11:42:00 2025, MaxMem=   104857600 cpu:               0.0 elap:               0.0
 (Enter /opt/g16/l123.exe)
 IRC-IRC-IRC-IRC-IRC-IRC-IRC-IRC-IRC-IRC-IRC-IRC-IRC-IRC-IRC-IRC-IRC-IRC
          ******** Start new reaction path calculation ********
 Current Structure is TS -> form Hessian eigenvectors.
                            Diagonalizing Hessian.
 Supplied step size of   0.1000 bohr.
    Integration on MW PES will use step size of   0.1008 sqrt(amu)*bohr.
 Point Number:   0          Path Number:   1
 Calculating another point on the path.
 Point Number  1 in FORWARD path direction.
 Using LQA Reaction Path Following.
 IRC-IRC-IRC-IRC-IRC-IRC-IRC-IRC-IRC-IRC-IRC-IRC-IRC-IRC-IRC-IRC-IRC-IRC
 Leave Link  123 at Fri Jan  3 11:42:00 2025, MaxMem=   104857600 cpu:               0.0 elap:               0.0
 (Enter /opt/g16/l202.exe)
                          Input orientation:                          
 ---------------------------------------------------------------------
 Center     Atomic      Atomic             Coordinates (Angstroms)
 Number     Number       Type             X           Y           Z
 ---------------------------------------------------------------------
      1          1           0        1.512584    1.302722    0.000427
      2          1           0       -1.512589    1.302716   -0.000430
      3          1           0       -0.037411   -0.051406    0.729734
      4          1           0        0.037412   -0.051406   -0.729733
      5         16           0        1.515047   -0.039441   -0.000581
      6         16           0       -1.515047   -0.039447    0.000582
 ---------------------------------------------------------------------
                    Distance matrix (angstroms):
                    1          2          3          4          5
     1  H    0.000000
     2  H    3.025173   0.000000
     3  H    2.183583   2.131416   0.000000
     4  H    2.131415   2.183582   1.461384   0.000000
     5  S    1.342166   3.311792   1.715701   1.647790   0.000000
     6  S    3.311792   1.342166   1.647790   1.715701   3.030094
                    6
     6  S    0.000000
 Symmetry turned off by external request.
 Stoichiometry    H4S2
 Framework group  C1[X(H4S2)]
 Deg. of freedom    12
 Full point group                 C1      NOp   1
 Rotational constants (GHZ):         109.8931310           3.3147632           3.2622922
 Leave Link  202 at Fri Jan  3 11:42:00 2025, MaxMem=   104857600 cpu:               0.0 elap:               0.0
 (Enter /opt/g16/l301.exe)
 Standard basis: STO-3G (5D, 7F)
 Ernie: Thresh=  0.10000D-02 Tol=  0.10000D-05 Strict=F.
    22 basis functions,    66 primitive gaussians,    22 cartesian basis functions
    18 alpha electrons       18 beta electrons
       nuclear repulsion energy        84.1024956500 Hartrees.
 IExCor=    0 DFT=F Ex=HF Corr=None ExCW=0 ScaHFX=  1.000000
 ScaDFX=  1.000000  1.000000  1.000000  1.000000 ScalE2=  1.000000  1.000000
 IRadAn=      5 IRanWt=     -1 IRanGd=            0 ICorTp=0 IEmpDi=  4
 NAtoms=    6 NActive=    6 NUniq=    6 SFac= 1.00D+00 NAtFMM=   60 NAOKFM=F Big=F
 Integral buffers will be    131072 words long.
 Raffenetti 1 integral format.
 Two-electron integral symmetry is turned off.
 Leave Link  301 at Fri Jan  3 11:42:00 2025, MaxMem=   104857600 cpu:               0.0 elap:               0.0
 (Enter /opt/g16/l402.exe)
 External calculation of energy, first and second derivatives.
 Running external command "python3 -u ../pes/h4s2_pes.py R"
         input file       "/home/jhli/scratch/g16/Gau-123693.EIn"
         output file      "/home/jhli/scratch/g16/Gau-123693.EOu"
         message file     "/home/jhli/scratch/g16/Gau-123693.EMs"
         fchk file        "/home/jhli/scratch/g16/Gau-123693.EFC"
         mat. el file     "/home/jhli/scratch/g16/Gau-123693.EUF"
 initialization done
 Recovered energy= -797.843293506     dipole=      0.000000000000      0.000000000000      0.000000000000
 Energy=    -797.843294     NIter=   0.
 Dipole moment=       0.000000       0.000000       0.000000
 Leave Link  402 at Fri Jan  3 11:42:00 2025, MaxMem=   104857600 cpu:               0.0 elap:               0.2
 (Enter /opt/g16/l716.exe)
 Dipole        = 0.00000000D+00 0.00000000D+00 0.00000000D+00
 -------------------------------------------------------------------
 Center     Atomic                   Forces (Hartrees/Bohr)
 Number     Number              X              Y              Z
 -------------------------------------------------------------------
      1        1           0.000022988   -0.000154729    0.000131340
      2        1          -0.000022982   -0.000154731   -0.000131310
      3        1          -0.011383406   -0.000043196   -0.000127283
      4        1           0.011383400   -0.000043204    0.000127215
      5       16           0.000359561    0.000197790   -0.005619235
      6       16          -0.000359560    0.000197789    0.005619274
 -------------------------------------------------------------------
 Cartesian Forces:  Max     0.011383406 RMS     0.004234594
 Force constants in Cartesian coordinates: 
                1             2             3             4             5 
      1  0.124973D-01
      2  0.127358D-02  0.270324D+00
      3  0.135107D-02  0.463668D-03  0.652485D-02
      4 -0.479434D-03 -0.205100D-02  0.110840D-03  0.124973D-01
      5  0.205100D-02 -0.262898D-04 -0.669212D-04 -0.127461D-02  0.270324D+00
      6  0.110819D-03  0.669291D-04  0.251968D-02  0.135106D-02 -0.464212D-03
      7 -0.692269D-03  0.129555D-02  0.814832D-03 -0.123029D-02 -0.125045D-02
      8 -0.896308D-02 -0.522197D-03  0.756156D-02  0.116650D-01 -0.102700D-02
      9 -0.113681D-02  0.178016D-02  0.218358D-03  0.922035D-03  0.165938D-02
     10 -0.123028D-02  0.125043D-02 -0.112131D-02 -0.692326D-03 -0.129554D-02
     11 -0.116650D-01 -0.102706D-02 -0.889857D-02  0.896309D-02 -0.522184D-03
     12  0.922053D-03 -0.165937D-02 -0.159708D-03 -0.113681D-02 -0.178016D-02
     13 -0.102069D-01 -0.236122D-02 -0.103450D-02  0.117831D-03 -0.596238D-03
     14  0.143620D-01 -0.269683D+00  0.105725D-02 -0.294069D-02  0.932106D-03
     15 -0.111157D-02 -0.469500D-03 -0.608307D-02 -0.135310D-03  0.182021D-03
     16  0.117809D-03  0.596235D-03 -0.120681D-03 -0.102069D-01  0.236225D-02
     17  0.294068D-02  0.932110D-03 -0.117026D-03 -0.143610D-01 -0.269683D+00
     18 -0.135312D-03 -0.182017D-03 -0.301916D-02 -0.111156D-02  0.470054D-03
                6             7             8             9            10 
      6  0.652485D-02
      7 -0.112133D-02 -0.688569D-01
      8  0.889856D-02 -0.675382D-03  0.369668D-01
      9 -0.159732D-03 -0.687909D-03 -0.262445D-02  0.526133D-01
     10  0.814872D-03  0.871204D-01  0.547077D-04  0.385477D-02 -0.688568D-01
     11 -0.756155D-02 -0.543851D-04  0.658695D-02 -0.216554D-02  0.674964D-03
     12  0.218353D-03  0.385474D-02  0.216551D-02 -0.200136D-01 -0.687905D-03
     13 -0.120693D-03 -0.644216D-02  0.675441D-02  0.235229D-01 -0.987542D-02
     14  0.117027D-03 -0.186825D-02 -0.176898D-01  0.503067D-03 -0.255164D-02
     15 -0.301915D-02 -0.400520D-01 -0.757330D-02 -0.147395D-01  0.371917D-01
     16 -0.103453D-02 -0.987536D-02 -0.883527D-02 -0.264719D-01 -0.644213D-02
     17 -0.105674D-02  0.255169D-02 -0.243118D-01  0.850071D-03  0.186832D-02
     18 -0.608306D-02  0.371918D-01 -0.842632D-02 -0.179206D-01 -0.400520D-01
               11            12            13            14            15 
     11  0.369668D-01
     12  0.262447D-02  0.526133D-01
     13  0.883530D-02 -0.264720D-01  0.112835D+00
     14 -0.243118D-01 -0.850164D-03 -0.981111D-02  0.295562D+00
     15  0.842648D-02 -0.179206D-01  0.293002D-02 -0.696492D-03  0.377907D-02
     16 -0.675433D-02  0.235230D-01 -0.864583D-01  0.280997D-02  0.117385D-02
     17 -0.176898D-01 -0.502982D-03 -0.281038D-02  0.151893D-01  0.130316D-03
     18  0.757313D-02 -0.147395D-01  0.117389D-02 -0.130276D-03  0.379840D-01
               16            17            18 
     16  0.112835D+00
     17  0.981039D-02  0.295562D+00
     18  0.292996D-02  0.695921D-03  0.377904D-02
 Leave Link  716 at Fri Jan  3 11:42:00 2025, MaxMem=   104857600 cpu:               0.0 elap:               0.0
 (Enter /opt/g16/l123.exe)
 IRC-IRC-IRC-IRC-IRC-IRC-IRC-IRC-IRC-IRC-IRC-IRC-IRC-IRC-IRC-IRC-IRC-IRC
 Pt  1 Step number   1 out of a maximum of  20
 Point Number:   1          Path Number:   1
                    CURRENT STRUCTURE
                Cartesian Coordinates (Ang):                
 ---------------------------------------------------------------------
 Center     Atomic                     Coordinates (Angstroms)
 Number     Number                        X           Y           Z
 ---------------------------------------------------------------------
      1          1                    1.512584    1.302722    0.000427
      2          1                   -1.512589    1.302716   -0.000430
      3          1                   -0.037411   -0.051406    0.729734
      4          1                    0.037412   -0.051406   -0.729733
      5         16                    1.515047   -0.039441   -0.000581
      6         16                   -1.515047   -0.039447    0.000582
 ---------------------------------------------------------------------
   CHANGE IN THE REACTION COORDINATE =    0.10076
   NET REACTION COORDINATE UP TO THIS POINT =    0.10076
  # OF POINTS ALONG THE PATH =   1
  # OF STEPS =   1

 Calculating another point on the path.
 Point Number  2 in FORWARD path direction.
 Using LQA Reaction Path Following.
   LQA: T_Est iteration completed in    3 iterations.
 IRC-IRC-IRC-IRC-IRC-IRC-IRC-IRC-IRC-IRC-IRC-IRC-IRC-IRC-IRC-IRC-IRC-IRC
 Leave Link  123 at Fri Jan  3 11:42:00 2025, MaxMem=   104857600 cpu:               0.0 elap:               0.0
 (Enter /opt/g16/l202.exe)
                          Input orientation:                          
 ---------------------------------------------------------------------
 Center     Atomic      Atomic             Coordinates (Angstroms)
 Number     Number       Type             X           Y           Z
 ---------------------------------------------------------------------
      1          1           0        1.512666    1.302521    0.000861
      2          1           0       -1.512671    1.302515   -0.000864
      3          1           0       -0.074804   -0.051546    0.729188
      4          1           0        0.074804   -0.051546   -0.729187
      5         16           0        1.515082   -0.039430   -0.001163
      6         16           0       -1.515082   -0.039436    0.001163
 ---------------------------------------------------------------------
                    Distance matrix (angstroms):
                    1          2          3          4          5
     1  H    0.000000
     2  H    3.025337   0.000000
     3  H    2.209981   2.105687   0.000000
     4  H    2.105686   2.209981   1.466029   0.000000
     5  S    1.341955   3.311813   1.749656   1.613866   0.000000
     6  S    3.311813   1.341955   1.613867   1.749656   3.030164
                    6
     6  S    0.000000
 Symmetry turned off by external request.
 Stoichiometry    H4S2
 Framework group  C1[X(H4S2)]
 Deg. of freedom    12
 Full point group                 C1      NOp   1
 Rotational constants (GHZ):         109.9615114           3.3144541           3.2619781
 Leave Link  202 at Fri Jan  3 11:42:00 2025, MaxMem=   104857600 cpu:               0.0 elap:               0.0
 (Enter /opt/g16/l301.exe)
 Standard basis: STO-3G (5D, 7F)
 Ernie: Thresh=  0.10000D-02 Tol=  0.10000D-05 Strict=F.
    22 basis functions,    66 primitive gaussians,    22 cartesian basis functions
    18 alpha electrons       18 beta electrons
       nuclear repulsion energy        84.1269867449 Hartrees.
 IExCor=    0 DFT=F Ex=HF Corr=None ExCW=0 ScaHFX=  1.000000
 ScaDFX=  1.000000  1.000000  1.000000  1.000000 ScalE2=  1.000000  1.000000
 IRadAn=      5 IRanWt=     -1 IRanGd=            0 ICorTp=0 IEmpDi=  4
 NAtoms=    6 NActive=    6 NUniq=    6 SFac= 1.00D+00 NAtFMM=   60 NAOKFM=F Big=F
 Integral buffers will be    131072 words long.
 Raffenetti 1 integral format.
 Two-electron integral symmetry is turned off.
 Leave Link  301 at Fri Jan  3 11:42:00 2025, MaxMem=   104857600 cpu:               0.0 elap:               0.0
 (Enter /opt/g16/l402.exe)
 External calculation of energy, first and second derivatives.
 Running external command "python3 -u ../pes/h4s2_pes.py R"
         input file       "/home/jhli/scratch/g16/Gau-123693.EIn"
         output file      "/home/jhli/scratch/g16/Gau-123693.EOu"
         message file     "/home/jhli/scratch/g16/Gau-123693.EMs"
         fchk file        "/home/jhli/scratch/g16/Gau-123693.EFC"
         mat. el file     "/home/jhli/scratch/g16/Gau-123693.EUF"
 initialization done
 Recovered energy= -797.845685385     dipole=      0.000000000000      0.000000000000      0.000000000000
 Energy=    -797.845685     NIter=   0.
 Dipole moment=       0.000000       0.000000       0.000000
 Leave Link  402 at Fri Jan  3 11:42:00 2025, MaxMem=   104857600 cpu:               0.0 elap:               0.2
 (Enter /opt/g16/l716.exe)
 Dipole        = 0.00000000D+00 0.00000000D+00 0.00000000D+00
 -------------------------------------------------------------------
 Center     Atomic                   Forces (Hartrees/Bohr)
 Number     Number              X              Y              Z
 -------------------------------------------------------------------
      1        1           0.000067886   -0.000040712    0.000259299
      2        1          -0.000067878   -0.000040713   -0.000259274
      3        1          -0.021985150   -0.000106661   -0.000500113
      4        1           0.021985139   -0.000106617    0.000500053
      5       16           0.000803209    0.000147088   -0.010869123
      6       16          -0.000803206    0.000147088    0.010869160
 -------------------------------------------------------------------
 Cartesian Forces:  Max     0.021985150 RMS     0.008181867
 Force constants in Cartesian coordinates: 
                1             2             3             4             5 
      1  0.126894D-01
      2  0.131579D-02  0.271184D+00
      3  0.268086D-02  0.924050D-03  0.655883D-02
      4 -0.488781D-03 -0.198985D-02  0.216834D-03  0.126894D-01
      5  0.198983D-02 -0.196296D-04 -0.131901D-03 -0.131681D-02  0.271184D+00
      6  0.216811D-03  0.131910D-03  0.244105D-02  0.268086D-02 -0.924594D-03
      7 -0.447851D-03  0.131010D-02  0.632823D-03 -0.148579D-02 -0.124261D-02
      8 -0.770569D-02 -0.300269D-03  0.690678D-02  0.130650D-01 -0.129854D-02
      9 -0.118235D-02  0.181822D-02  0.380486D-03  0.755814D-03  0.157950D-02
     10 -0.148577D-02  0.124260D-02 -0.123479D-02 -0.447905D-03 -0.131009D-02
     11 -0.130650D-01 -0.129861D-02 -0.956604D-02  0.770569D-02 -0.300252D-03
     12  0.755832D-03 -0.157949D-02 -0.355561D-03 -0.118236D-02 -0.181823D-02
     13 -0.102998D-01 -0.228393D-02 -0.204379D-02  0.388735D-04 -0.408516D-03
     14  0.145901D-01 -0.270465D+00  0.209881D-02 -0.287419D-02  0.897513D-03
     15 -0.221031D-02 -0.940967D-03 -0.611030D-02 -0.260344D-03  0.354005D-03
     16  0.388448D-04  0.408522D-03 -0.251506D-03 -0.102997D-01  0.228497D-02
     17  0.287419D-02  0.897519D-03 -0.231722D-03 -0.145891D-01 -0.270465D+00
     18 -0.260381D-03 -0.354013D-03 -0.291356D-02 -0.221030D-02  0.941500D-03
                6             7             8             9            10 
      6  0.655885D-02
      7 -0.123481D-02 -0.578847D-01
      8  0.956602D-02 -0.131073D-02  0.371045D-01
      9 -0.355585D-03 -0.503900D-03 -0.272516D-02  0.534078D-01
     10  0.632872D-03  0.818193D-01  0.785290D-04  0.736885D-02 -0.578846D-01
     11 -0.690678D-02 -0.782088D-04  0.639556D-02 -0.213010D-02  0.131033D-02
     12  0.380505D-03  0.736884D-02  0.213009D-02 -0.196101D-01 -0.503876D-03
     13 -0.251522D-03 -0.694451D-02  0.558129D-02  0.221994D-01 -0.150347D-01
     14  0.231728D-03 -0.161590D-02 -0.144703D-01  0.379872D-03 -0.293499D-02
     15 -0.291358D-02 -0.379784D-01 -0.707661D-02 -0.135552D-01  0.317156D-01
     16 -0.204381D-02 -0.150346D-01 -0.970776D-02 -0.286320D-01 -0.694451D-02
     17 -0.209827D-02  0.293504D-02 -0.274281D-01  0.108003D-02  0.161592D-02
     18 -0.611030D-02  0.317157D-01 -0.879957D-02 -0.202690D-01 -0.379784D-01
               11            12            13            14            15 
     11  0.371045D-01
     12  0.272519D-02  0.534078D-01
     13  0.970777D-02 -0.286321D-01  0.116371D+00
     14 -0.274280D-01 -0.108013D-02 -0.987543D-02  0.296587D+00
     15  0.879972D-02 -0.202691D-01  0.647984D-02 -0.138332D-02  0.626642D-02
     16 -0.558123D-02  0.221994D-01 -0.841590D-01  0.271095D-02  0.224740D-02
     17 -0.144703D-01 -0.379778D-03 -0.271134D-02  0.148778D-01  0.246198D-03
     18  0.707646D-02 -0.135552D-01  0.224744D-02 -0.246182D-03  0.365823D-01
               16            17            18 
     16  0.116371D+00
     17  0.987472D-02  0.296587D+00
     18  0.647978D-02  0.138278D-02  0.626642D-02
 Leave Link  716 at Fri Jan  3 11:42:00 2025, MaxMem=   104857600 cpu:               0.0 elap:               0.0
 (Enter /opt/g16/l123.exe)
 IRC-IRC-IRC-IRC-IRC-IRC-IRC-IRC-IRC-IRC-IRC-IRC-IRC-IRC-IRC-IRC-IRC-IRC
 Pt  2 Step number   1 out of a maximum of  20
 Point Number:   2          Path Number:   1
                    CURRENT STRUCTURE
                Cartesian Coordinates (Ang):                
 ---------------------------------------------------------------------
 Center     Atomic                     Coordinates (Angstroms)
 Number     Number                        X           Y           Z
 ---------------------------------------------------------------------
      1          1                    1.512666    1.302521    0.000861
      2          1                   -1.512671    1.302515   -0.000864
      3          1                   -0.074804   -0.051546    0.729188
      4          1                    0.074804   -0.051546   -0.729187
      5         16                    1.515082   -0.039430   -0.001163
      6         16                   -1.515082   -0.039436    0.001163
 ---------------------------------------------------------------------
   CHANGE IN THE REACTION COORDINATE =    0.10073
   NET REACTION COORDINATE UP TO THIS POINT =    0.20149
  # OF POINTS ALONG THE PATH =   2
  # OF STEPS =   1

 Calculating another point on the path.
 Point Number  3 in FORWARD path direction.
 Using LQA Reaction Path Following.
   LQA: T_Est iteration completed in    3 iterations.
 IRC-IRC-IRC-IRC-IRC-IRC-IRC-IRC-IRC-IRC-IRC-IRC-IRC-IRC-IRC-IRC-IRC-IRC
 Leave Link  123 at Fri Jan  3 11:42:00 2025, MaxMem=   104857600 cpu:               0.0 elap:               0.0
 (Enter /opt/g16/l202.exe)
                          Input orientation:                          
 ---------------------------------------------------------------------
 Center     Atomic      Atomic             Coordinates (Angstroms)
 Number     Number       Type             X           Y           Z
 ---------------------------------------------------------------------
      1          1           0        1.512797    1.302487    0.001307
      2          1           0       -1.512803    1.302481   -0.001309
      3          1           0       -0.112189   -0.051749    0.728207
      4          1           0        0.112190   -0.051750   -0.728206
      5         16           0        1.515131   -0.039423   -0.001746
      6         16           0       -1.515131   -0.039429    0.001746
 ---------------------------------------------------------------------
                    Distance matrix (angstroms):
                    1          2          3          4          5
     1  H    0.000000
     2  H    3.025601   0.000000
     3  H    2.236722   2.080349   0.000000
     4  H    2.080348   2.236721   1.473596   0.000000
     5  S    1.341915   3.311961   1.783579   1.579918   0.000000
     6  S    3.311961   1.341915   1.579918   1.783579   3.030264
                    6
     6  S    0.000000
 Symmetry turned off by external request.
 Stoichiometry    H4S2
 Framework group  C1[X(H4S2)]
 Deg. of freedom    12
 Full point group                 C1      NOp   1
 Rotational constants (GHZ):         110.0416738           3.3139836           3.2614593
 Leave Link  202 at Fri Jan  3 11:42:00 2025, MaxMem=   104857600 cpu:               0.0 elap:               0.0
 (Enter /opt/g16/l301.exe)
 Standard basis: STO-3G (5D, 7F)
 Ernie: Thresh=  0.10000D-02 Tol=  0.10000D-05 Strict=F.
    22 basis functions,    66 primitive gaussians,    22 cartesian basis functions
    18 alpha electrons       18 beta electrons
       nuclear repulsion energy        84.1655758428 Hartrees.
 IExCor=    0 DFT=F Ex=HF Corr=None ExCW=0 ScaHFX=  1.000000
 ScaDFX=  1.000000  1.000000  1.000000  1.000000 ScalE2=  1.000000  1.000000
 IRadAn=      5 IRanWt=     -1 IRanGd=            0 ICorTp=0 IEmpDi=  4
 NAtoms=    6 NActive=    6 NUniq=    6 SFac= 1.00D+00 NAtFMM=   60 NAOKFM=F Big=F
 Integral buffers will be    131072 words long.
 Raffenetti 1 integral format.
 Two-electron integral symmetry is turned off.
 Leave Link  301 at Fri Jan  3 11:42:00 2025, MaxMem=   104857600 cpu:               0.0 elap:               0.0
 (Enter /opt/g16/l402.exe)
 External calculation of energy, first and second derivatives.
 Running external command "python3 -u ../pes/h4s2_pes.py R"
         input file       "/home/jhli/scratch/g16/Gau-123693.EIn"
         output file      "/home/jhli/scratch/g16/Gau-123693.EOu"
         message file     "/home/jhli/scratch/g16/Gau-123693.EMs"
         fchk file        "/home/jhli/scratch/g16/Gau-123693.EFC"
         mat. el file     "/home/jhli/scratch/g16/Gau-123693.EUF"
 initialization done
 Recovered energy= -797.849490946     dipole=      0.000000000000      0.000000000000      0.000000000000
 Energy=    -797.849491     NIter=   0.
 Dipole moment=       0.000000       0.000000       0.000000
 Leave Link  402 at Fri Jan  3 11:42:01 2025, MaxMem=   104857600 cpu:               0.0 elap:               0.2
 (Enter /opt/g16/l716.exe)
 Dipole        = 0.00000000D+00 0.00000000D+00 0.00000000D+00
 -------------------------------------------------------------------
 Center     Atomic                   Forces (Hartrees/Bohr)
 Number     Number              X              Y              Z
 -------------------------------------------------------------------
      1        1           0.000137949   -0.000011942    0.000379861
      2        1          -0.000137939   -0.000011944   -0.000379839
      3        1          -0.031089292   -0.000207441   -0.000971714
      4        1           0.031089276   -0.000207357    0.000971656
      5       16           0.001696334    0.000218889   -0.015400872
      6       16          -0.001696328    0.000218888    0.015400908
 -------------------------------------------------------------------
 Cartesian Forces:  Max     0.031089292 RMS     0.011584506
 Force constants in Cartesian coordinates: 
                1             2             3             4             5 
      1  0.130456D-01
      2  0.138934D-02  0.272031D+00
      3  0.396890D-02  0.137805D-02  0.667050D-02
      4 -0.507265D-03 -0.189441D-02  0.312681D-03  0.130456D-01
      5  0.189441D-02 -0.127350D-04 -0.192526D-03 -0.139036D-02  0.272031D+00
      6  0.312676D-03  0.192520D-03  0.231761D-02  0.396891D-02 -0.137858D-02
      7 -0.237555D-03  0.129499D-02  0.434228D-03 -0.171338D-02 -0.125961D-02
      8 -0.654089D-02 -0.105990D-03  0.627061D-02  0.144717D-01 -0.157805D-02
      9 -0.119694D-02  0.183512D-02  0.511569D-03  0.564660D-03  0.148372D-02
     10 -0.171336D-02  0.125960D-02 -0.131066D-02 -0.237611D-03 -0.129499D-02
     11 -0.144717D-01 -0.157812D-02 -0.102270D-01  0.654089D-02 -0.105986D-03
     12  0.564694D-03 -0.148371D-02 -0.540906D-03 -0.119695D-02 -0.183512D-02
     13 -0.105216D-01 -0.217162D-02 -0.301084D-02 -0.601648D-04 -0.124778D-03
     14  0.149535D-01 -0.271184D+00  0.311188D-02 -0.277472D-02  0.847812D-03
     15 -0.328173D-02 -0.141910D-02 -0.621461D-02 -0.366891D-03  0.503285D-03
     16 -0.601636D-04  0.124771D-03 -0.393711D-03 -0.105216D-01  0.217264D-02
     17  0.277472D-02  0.847836D-03 -0.340969D-03 -0.149525D-01 -0.271184D+00
     18 -0.366911D-03 -0.503286D-03 -0.274325D-02 -0.328172D-02  0.141963D-02
                6             7             8             9            10 
      6  0.667050D-02
      7 -0.131068D-02 -0.402910D-01
      8  0.102270D-01 -0.187645D-02  0.372629D-01
      9 -0.540927D-03  0.134936D-02 -0.287233D-02  0.548098D-01
     10  0.434256D-03  0.736158D-01  0.486935D-04  0.102679D-01 -0.402909D-01
     11 -0.627061D-02 -0.484053D-04  0.609791D-02 -0.205746D-02  0.187615D-02
     12  0.511581D-03  0.102679D-01  0.205745D-02 -0.189912D-01  0.134938D-02
     13 -0.393725D-03 -0.816615D-02  0.440074D-02  0.208243D-01 -0.231888D-01
     14  0.340944D-03 -0.143554D-02 -0.114674D-01  0.273699D-03 -0.332186D-02
     15 -0.274325D-02 -0.341319D-01 -0.652836D-02 -0.124381D-01  0.233914D-01
     16 -0.301084D-02 -0.231886D-01 -0.105029D-01 -0.318015D-01 -0.816612D-02
     17 -0.311134D-02  0.332189D-02 -0.302066D-01  0.133905D-02  0.143553D-02
     18 -0.621459D-02  0.233915D-01 -0.915287D-02 -0.233526D-01 -0.341319D-01
               11            12            13            14            15 
     11  0.372629D-01
     12  0.287235D-02  0.548098D-01
     13  0.105029D-01 -0.318016D-01  0.122591D+00
     14 -0.302066D-01 -0.133918D-02 -0.100094D-01  0.297625D+00
     15  0.915297D-02 -0.233526D-01  0.112415D-01 -0.204823D-02  0.103798D-01
     16 -0.440070D-02  0.208243D-01 -0.806789D-01  0.258904D-02  0.313926D-02
     17 -0.114674D-01 -0.273634D-03 -0.258943D-02  0.143847D-01  0.338055D-03
     18  0.652822D-02 -0.124381D-01  0.313929D-02 -0.338017D-03  0.343692D-01
               16            17            18 
     16  0.122591D+00
     17  0.100088D-01  0.297625D+00
     18  0.112414D-01  0.204772D-02  0.103798D-01
 Leave Link  716 at Fri Jan  3 11:42:01 2025, MaxMem=   104857600 cpu:               0.0 elap:               0.0
 (Enter /opt/g16/l123.exe)
 IRC-IRC-IRC-IRC-IRC-IRC-IRC-IRC-IRC-IRC-IRC-IRC-IRC-IRC-IRC-IRC-IRC-IRC
 Pt  3 Step number   1 out of a maximum of  20
 Point Number:   3          Path Number:   1
                    CURRENT STRUCTURE
                Cartesian Coordinates (Ang):                
 ---------------------------------------------------------------------
 Center     Atomic                     Coordinates (Angstroms)
 Number     Number                        X           Y           Z
 ---------------------------------------------------------------------
      1          1                    1.512797    1.302487    0.001307
      2          1                   -1.512803    1.302481   -0.001309
      3          1                   -0.112189   -0.051749    0.728207
      4          1                    0.112190   -0.051750   -0.728206
      5         16                    1.515131   -0.039423   -0.001746
      6         16                   -1.515131   -0.039429    0.001746
 ---------------------------------------------------------------------
   CHANGE IN THE REACTION COORDINATE =    0.10073
   NET REACTION COORDINATE UP TO THIS POINT =    0.30222
  # OF POINTS ALONG THE PATH =   3
  # OF STEPS =   1

 Calculating another point on the path.
 Point Number  4 in FORWARD path direction.
 Using LQA Reaction Path Following.
   LQA: T_Est iteration completed in    3 iterations.
 IRC-IRC-IRC-IRC-IRC-IRC-IRC-IRC-IRC-IRC-IRC-IRC-IRC-IRC-IRC-IRC-IRC-IRC
 Leave Link  123 at Fri Jan  3 11:42:01 2025, MaxMem=   104857600 cpu:               0.0 elap:               0.0
 (Enter /opt/g16/l202.exe)
                          Input orientation:                          
 ---------------------------------------------------------------------
 Center     Atomic      Atomic             Coordinates (Angstroms)
 Number     Number       Type             X           Y           Z
 ---------------------------------------------------------------------
      1          1           0        1.512986    1.302482    0.001771
      2          1           0       -1.512991    1.302476   -0.001774
      3          1           0       -0.149564   -0.052029    0.726936
      4          1           0        0.149564   -0.052029   -0.726935
      5         16           0        1.515207   -0.039414   -0.002330
      6         16           0       -1.515207   -0.039420    0.002331
 ---------------------------------------------------------------------
                    Distance matrix (angstroms):
                    1          2          3          4          5
     1  H    0.000000
     2  H    3.025978   0.000000
     3  H    2.263766   2.055391   0.000000
     4  H    2.055391   2.263765   1.484324   0.000000
     5  S    1.341904   3.312197   1.817540   1.546024   0.000000
     6  S    3.312197   1.341904   1.546025   1.817540   3.030418
                    6
     6  S    0.000000
 Symmetry turned off by external request.
 Stoichiometry    H4S2
 Framework group  C1[X(H4S2)]
 Deg. of freedom    12
 Full point group                 C1      NOp   1
 Rotational constants (GHZ):         110.1411358           3.3132872           3.2606980
 Leave Link  202 at Fri Jan  3 11:42:01 2025, MaxMem=   104857600 cpu:               0.0 elap:               0.0
 (Enter /opt/g16/l301.exe)
 Standard basis: STO-3G (5D, 7F)
 Ernie: Thresh=  0.10000D-02 Tol=  0.10000D-05 Strict=F.
    22 basis functions,    66 primitive gaussians,    22 cartesian basis functions
    18 alpha electrons       18 beta electrons
       nuclear repulsion energy        84.2185287350 Hartrees.
 IExCor=    0 DFT=F Ex=HF Corr=None ExCW=0 ScaHFX=  1.000000
 ScaDFX=  1.000000  1.000000  1.000000  1.000000 ScalE2=  1.000000  1.000000
 IRadAn=      5 IRanWt=     -1 IRanGd=            0 ICorTp=0 IEmpDi=  4
 NAtoms=    6 NActive=    6 NUniq=    6 SFac= 1.00D+00 NAtFMM=   60 NAOKFM=F Big=F
 Integral buffers will be    131072 words long.
 Raffenetti 1 integral format.
 Two-electron integral symmetry is turned off.
 Leave Link  301 at Fri Jan  3 11:42:01 2025, MaxMem=   104857600 cpu:               0.0 elap:               0.0
 (Enter /opt/g16/l402.exe)
 External calculation of energy, first and second derivatives.
 Running external command "python3 -u ../pes/h4s2_pes.py R"
         input file       "/home/jhli/scratch/g16/Gau-123693.EIn"
         output file      "/home/jhli/scratch/g16/Gau-123693.EOu"
         message file     "/home/jhli/scratch/g16/Gau-123693.EMs"
         fchk file        "/home/jhli/scratch/g16/Gau-123693.EFC"
         mat. el file     "/home/jhli/scratch/g16/Gau-123693.EUF"
 initialization done
 Recovered energy= -797.854451668     dipole=      0.000000000000      0.000000000000      0.000000000000
 Energy=    -797.854452     NIter=   0.
 Dipole moment=       0.000000       0.000000       0.000000
 Leave Link  402 at Fri Jan  3 11:42:01 2025, MaxMem=   104857600 cpu:               0.0 elap:               0.2
 (Enter /opt/g16/l716.exe)
 Dipole        = 0.00000000D+00 0.00000000D+00 0.00000000D+00
 -------------------------------------------------------------------
 Center     Atomic                   Forces (Hartrees/Bohr)
 Number     Number              X              Y              Z
 -------------------------------------------------------------------
      1        1           0.000229342   -0.000001964    0.000488391
      2        1          -0.000229329   -0.000001967   -0.000488371
      3        1          -0.038072497   -0.000333685   -0.001367875
      4        1           0.038072475   -0.000333569    0.001367819
      5       16           0.003214311    0.000334904   -0.018900192
      6       16          -0.003214303    0.000334900    0.018900228
 -------------------------------------------------------------------
 Cartesian Forces:  Max     0.038072497 RMS     0.014218335
 Force constants in Cartesian coordinates: 
                1             2             3             4             5 
      1  0.135170D-01
      2  0.149607D-02  0.272967D+00
      3  0.519891D-02  0.182479D-02  0.682987D-02
      4 -0.538180D-03 -0.177303D-02  0.392906D-03  0.135170D-01
      5  0.177302D-02 -0.381438D-05 -0.246315D-03 -0.149708D-02  0.272967D+00
      6  0.392908D-03  0.246315D-03  0.216063D-02  0.519891D-02 -0.182531D-02
      7 -0.649449D-04  0.123481D-02  0.222345D-03 -0.191147D-02 -0.130668D-02
      8 -0.549244D-02  0.532940D-04  0.565843D-02  0.158708D-01 -0.186744D-02
      9 -0.119143D-02  0.181903D-02  0.600692D-03  0.362263D-03  0.136341D-02
     10 -0.191143D-02  0.130666D-02 -0.134420D-02 -0.649917D-04 -0.123481D-02
     11 -0.158709D-01 -0.186753D-02 -0.108850D-01  0.549245D-02  0.532852D-04
     12  0.362283D-03 -0.136341D-02 -0.703540D-03 -0.119143D-02 -0.181903D-02
     13 -0.108521D-01 -0.205659D-02 -0.393403D-02 -0.144998D-03  0.205864D-03
     14  0.154376D-01 -0.271939D+00  0.408748D-02 -0.265603D-02  0.788302D-03
     15 -0.431204D-02 -0.190873D-02 -0.636888D-02 -0.449691D-03  0.618472D-03
     16 -0.145022D-03 -0.205882D-03 -0.535241D-03 -0.108520D-01  0.205762D-02
     17  0.265604D-02  0.788303D-03 -0.439263D-03 -0.154366D-01 -0.271940D+00
     18 -0.449710D-03 -0.618480D-03 -0.251789D-02 -0.431204D-02  0.190926D-02
                6             7             8             9            10 
      6  0.682988D-02
      7 -0.134424D-02 -0.170170D-01
      8  0.108850D-01 -0.236265D-02  0.373494D-01
      9 -0.703557D-03  0.552289D-02 -0.304020D-02  0.568944D-01
     10  0.222391D-03  0.633114D-01 -0.413195D-04  0.123811D-01 -0.170168D-01
     11 -0.565844D-02  0.415695D-04  0.572206D-02 -0.192975D-02  0.236243D-02
     12  0.600708D-03  0.123811D-01  0.192976D-02 -0.182046D-01  0.552292D-02
     13 -0.535246D-03 -0.966953D-02  0.330207D-02  0.193682D-01 -0.346331D-01
     14  0.439248D-03 -0.131885D-02 -0.876865D-02  0.170567D-03 -0.370823D-02
     15 -0.251789D-02 -0.290448D-01 -0.593223D-02 -0.112853D-01  0.122633D-01
     16 -0.393404D-02 -0.346330D-01 -0.112754D-01 -0.364342D-01 -0.966952D-02
     17 -0.408696D-02  0.370820D-02 -0.324861D-01  0.161806D-02  0.131883D-02
     18 -0.636888D-02  0.122634D-01 -0.949927D-02 -0.273028D-01 -0.290448D-01
               11            12            13            14            15 
     11  0.373494D-01
     12  0.304025D-02  0.568945D-01
     13  0.112754D-01 -0.364343D-01  0.131707D+00
     14 -0.324860D-01 -0.161820D-02 -0.102365D-01  0.298660D+00
     15  0.949932D-02 -0.273028D-01  0.177364D-01 -0.267813D-02  0.159608D-01
     16 -0.330203D-02  0.193683D-01 -0.764279D-01  0.248347D-02  0.379739D-02
     17 -0.876865D-02 -0.170484D-03 -0.248383D-02  0.137450D-01  0.399575D-03
     18  0.593210D-02 -0.112853D-01  0.379741D-02 -0.399540D-03  0.315143D-01
               16            17            18 
     16  0.131707D+00
     17  0.102359D-01  0.298661D+00
     18  0.177363D-01  0.267765D-02  0.159607D-01
 Leave Link  716 at Fri Jan  3 11:42:01 2025, MaxMem=   104857600 cpu:               0.0 elap:               0.0
 (Enter /opt/g16/l123.exe)
 IRC-IRC-IRC-IRC-IRC-IRC-IRC-IRC-IRC-IRC-IRC-IRC-IRC-IRC-IRC-IRC-IRC-IRC
 Pt  4 Step number   1 out of a maximum of  20
 Point Number:   4          Path Number:   1
                    CURRENT STRUCTURE
                Cartesian Coordinates (Ang):                
 ---------------------------------------------------------------------
 Center     Atomic                     Coordinates (Angstroms)
 Number     Number                        X           Y           Z
 ---------------------------------------------------------------------
      1          1                    1.512986    1.302482    0.001771
      2          1                   -1.512991    1.302476   -0.001774
      3          1                   -0.149564   -0.052029    0.726936
      4          1                    0.149564   -0.052029   -0.726935
      5         16                    1.515207   -0.039414   -0.002330
      6         16                   -1.515207   -0.039420    0.002331
 ---------------------------------------------------------------------
   CHANGE IN THE REACTION COORDINATE =    0.10074
   NET REACTION COORDINATE UP TO THIS POINT =    0.40296
  # OF POINTS ALONG THE PATH =   4
  # OF STEPS =   1

 Calculating another point on the path.
 Point Number  5 in FORWARD path direction.
 Using LQA Reaction Path Following.
   LQA: T_Est iteration completed in    3 iterations.
 IRC-IRC-IRC-IRC-IRC-IRC-IRC-IRC-IRC-IRC-IRC-IRC-IRC-IRC-IRC-IRC-IRC-IRC
 Leave Link  123 at Fri Jan  3 11:42:01 2025, MaxMem=   104857600 cpu:               0.0 elap:               0.0
 (Enter /opt/g16/l202.exe)
                          Input orientation:                          
 ---------------------------------------------------------------------
 Center     Atomic      Atomic             Coordinates (Angstroms)
 Number     Number       Type             X           Y           Z
 ---------------------------------------------------------------------
      1          1           0        1.513239    1.302482    0.002263
      2          1           0       -1.513244    1.302476   -0.002265
      3          1           0       -0.186930   -0.052393    0.725557
      4          1           0        0.186930   -0.052393   -0.725556
      5         16           0        1.515326   -0.039402   -0.002916
      6         16           0       -1.515326   -0.039408    0.002916
 ---------------------------------------------------------------------
                    Distance matrix (angstroms):
                    1          2          3          4          5
     1  H    0.000000
     2  H    3.026487   0.000000
     3  H    2.291161   2.030888   0.000000
     4  H    2.030887   2.291160   1.498499   0.000000
     5  S    1.341896   3.312534   1.851626   1.512288   0.000000
     6  S    3.312534   1.341896   1.512288   1.851626   3.030658
                    6
     6  S    0.000000
 Symmetry turned off by external request.
 Stoichiometry    H4S2
 Framework group  C1[X(H4S2)]
 Deg. of freedom    12
 Full point group                 C1      NOp   1
 Rotational constants (GHZ):         110.2501489           3.3122845           3.2596308
 Leave Link  202 at Fri Jan  3 11:42:01 2025, MaxMem=   104857600 cpu:               0.0 elap:               0.0
 (Enter /opt/g16/l301.exe)
 Standard basis: STO-3G (5D, 7F)
 Ernie: Thresh=  0.10000D-02 Tol=  0.10000D-05 Strict=F.
    22 basis functions,    66 primitive gaussians,    22 cartesian basis functions
    18 alpha electrons       18 beta electrons
       nuclear repulsion energy        84.2845913222 Hartrees.
 IExCor=    0 DFT=F Ex=HF Corr=None ExCW=0 ScaHFX=  1.000000
 ScaDFX=  1.000000  1.000000  1.000000  1.000000 ScalE2=  1.000000  1.000000
 IRadAn=      5 IRanWt=     -1 IRanGd=            0 ICorTp=0 IEmpDi=  4
 NAtoms=    6 NActive=    6 NUniq=    6 SFac= 1.00D+00 NAtFMM=   60 NAOKFM=F Big=F
 Integral buffers will be    131072 words long.
 Raffenetti 1 integral format.
 Two-electron integral symmetry is turned off.
 Leave Link  301 at Fri Jan  3 11:42:01 2025, MaxMem=   104857600 cpu:               0.0 elap:               0.0
 (Enter /opt/g16/l402.exe)
 External calculation of energy, first and second derivatives.
 Running external command "python3 -u ../pes/h4s2_pes.py R"
         input file       "/home/jhli/scratch/g16/Gau-123693.EIn"
         output file      "/home/jhli/scratch/g16/Gau-123693.EOu"
         message file     "/home/jhli/scratch/g16/Gau-123693.EMs"
         fchk file        "/home/jhli/scratch/g16/Gau-123693.EFC"
         mat. el file     "/home/jhli/scratch/g16/Gau-123693.EUF"
 initialization done
 Recovered energy= -797.860228678     dipole=      0.000000000000      0.000000000000      0.000000000000
 Energy=    -797.860229     NIter=   0.
 Dipole moment=       0.000000       0.000000       0.000000
 Leave Link  402 at Fri Jan  3 11:42:01 2025, MaxMem=   104857600 cpu:               0.0 elap:               0.2
 (Enter /opt/g16/l716.exe)
 Dipole        = 0.00000000D+00 0.00000000D+00 0.00000000D+00
 -------------------------------------------------------------------
 Center     Atomic                   Forces (Hartrees/Bohr)
 Number     Number              X              Y              Z
 -------------------------------------------------------------------
      1        1           0.000337980   -0.000005116    0.000580273
      2        1          -0.000337966   -0.000005119   -0.000580255
      3        1          -0.042445400   -0.000473897   -0.001473765
      4        1           0.042445375   -0.000473760    0.001473710
      5       16           0.005566572    0.000478006   -0.021103418
      6       16          -0.005566561    0.000477995    0.021103455
 -------------------------------------------------------------------
 Cartesian Forces:  Max     0.042445400 RMS     0.015920038
 Force constants in Cartesian coordinates: 
                1             2             3             4             5 
      1  0.140679D-01
      2  0.163812D-02  0.273896D+00
      3  0.635890D-02  0.226636D-02  0.703090D-02
      4 -0.585496D-03 -0.163588D-02  0.451988D-03  0.140679D-01
      5  0.163586D-02  0.870138D-05 -0.290127D-03 -0.163914D-02  0.273896D+00
      6  0.451989D-03  0.290139D-03  0.198129D-02  0.635889D-02 -0.226688D-02
      7  0.771283D-04  0.112118D-02  0.927330D-05 -0.208724D-02 -0.138106D-02
      8 -0.457947D-02  0.169506D-03  0.507042D-02  0.172484D-01 -0.217357D-02
      9 -0.117512D-02  0.175783D-02  0.638807D-03  0.160352D-03  0.120983D-02
     10 -0.208718D-02  0.138106D-02 -0.134182D-02  0.771033D-04 -0.112119D-02
     11 -0.172484D-01 -0.217366D-02 -0.115488D-01  0.457948D-02  0.169518D-03
     12  0.160376D-03 -0.120984D-02 -0.831632D-03 -0.117510D-02 -0.175783D-02
     13 -0.112884D-01 -0.197883D-02 -0.482730D-02 -0.179043D-03  0.524296D-03
     14  0.160196D-01 -0.272631D+00  0.502133D-02 -0.253384D-02  0.728178D-03
     15 -0.528778D-02 -0.241482D-02 -0.656686D-02 -0.507274D-03  0.690194D-03
     16 -0.179047D-03 -0.524307D-03 -0.650346D-03 -0.112883D-01  0.197984D-02
     17  0.253383D-02  0.728179D-03 -0.518921D-03 -0.160186D-01 -0.272631D+00
     18 -0.507279D-03 -0.690205D-03 -0.225169D-02 -0.528777D-02  0.241534D-02
                6             7             8             9            10 
      6  0.703092D-02
      7 -0.134184D-02  0.107981D-01
      8  0.115488D-01 -0.278820D-02  0.372501D-01
      9 -0.831667D-03  0.124867D-01 -0.320122D-02  0.597503D-01
     10  0.931556D-05  0.518408D-01 -0.173717D-03  0.136630D-01  0.107982D-01
     11 -0.507042D-02  0.173917D-03  0.530512D-02 -0.172920D-02  0.278813D-02
     12  0.638811D-03  0.136630D-01  0.172921D-02 -0.172927D-01  0.124867D-01
     13 -0.650362D-03 -0.111860D-01  0.238778D-02  0.178541D-01 -0.494314D-01
     14  0.518908D-03 -0.123776D-02 -0.643711D-02  0.560573D-04 -0.410842D-02
     15 -0.225168D-02 -0.232786D-01 -0.529851D-02 -0.100522D-01 -0.153773D-02
     16 -0.482729D-02 -0.494312D-01 -0.120936D-01 -0.429800D-01 -0.111860D-01
     17 -0.502082D-02  0.410833D-02 -0.341119D-01  0.190708D-02  0.123772D-02
     18 -0.656685D-02 -0.153764D-02 -0.984724D-02 -0.322134D-01 -0.232786D-01
               11            12            13            14            15 
     11  0.372501D-01
     12  0.320130D-02  0.597503D-01
     13  0.120935D-01 -0.429801D-01  0.143935D+00
     14 -0.341118D-01 -0.190725D-02 -0.105799D-01  0.299450D+00
     15  0.984722D-02 -0.322134D-01  0.263911D-01 -0.325671D-02  0.228542D-01
     16 -0.238777D-02  0.178541D-01 -0.718664D-01  0.244233D-02  0.421049D-02
     17 -0.643711D-02 -0.559853D-04 -0.244266D-02  0.130014D-01  0.430707D-03
     18  0.529841D-02 -0.100522D-01  0.421052D-02 -0.430675D-03  0.282299D-01
               16            17            18 
     16  0.143935D+00
     17  0.105794D-01  0.299450D+00
     18  0.263911D-01  0.325627D-02  0.228542D-01
 Leave Link  716 at Fri Jan  3 11:42:01 2025, MaxMem=   104857600 cpu:               0.0 elap:               0.0
 (Enter /opt/g16/l123.exe)
 IRC-IRC-IRC-IRC-IRC-IRC-IRC-IRC-IRC-IRC-IRC-IRC-IRC-IRC-IRC-IRC-IRC-IRC
 Pt  5 Step number   1 out of a maximum of  20
 Point Number:   5          Path Number:   1
                    CURRENT STRUCTURE
                Cartesian Coordinates (Ang):                
 ---------------------------------------------------------------------
 Center     Atomic                     Coordinates (Angstroms)
 Number     Number                        X           Y           Z
 ---------------------------------------------------------------------
      1          1                    1.513239    1.302482    0.002263
      2          1                   -1.513244    1.302476   -0.002265
      3          1                   -0.186930   -0.052393    0.725557
      4          1                    0.186930   -0.052393   -0.725556
      5         16                    1.515326   -0.039402   -0.002916
      6         16                   -1.515326   -0.039408    0.002916
 ---------------------------------------------------------------------
   CHANGE IN THE REACTION COORDINATE =    0.10074
   NET REACTION COORDINATE UP TO THIS POINT =    0.50370
  # OF POINTS ALONG THE PATH =   5
  # OF STEPS =   1

 Calculating another point on the path.
 Point Number  6 in FORWARD path direction.
 Using LQA Reaction Path Following.
   LQA: T_Est iteration completed in    3 iterations.
 IRC-IRC-IRC-IRC-IRC-IRC-IRC-IRC-IRC-IRC-IRC-IRC-IRC-IRC-IRC-IRC-IRC-IRC
 Leave Link  123 at Fri Jan  3 11:42:01 2025, MaxMem=   104857600 cpu:               0.0 elap:               0.0
 (Enter /opt/g16/l202.exe)
                          Input orientation:                          
 ---------------------------------------------------------------------
 Center     Atomic      Atomic             Coordinates (Angstroms)
 Number     Number       Type             X           Y           Z
 ---------------------------------------------------------------------
      1          1           0        1.513575    1.302475    0.002791
      2          1           0       -1.513580    1.302468   -0.002793
      3          1           0       -0.224291   -0.052855    0.724343
      4          1           0        0.224291   -0.052855   -0.724342
      5         16           0        1.515513   -0.039388   -0.003501
      6         16           0       -1.515513   -0.039394    0.003502
 ---------------------------------------------------------------------
                    Distance matrix (angstroms):
                    1          2          3          4          5
     1  H    0.000000
     2  H    3.027160   0.000000
     3  H    2.318994   2.006962   0.000000
     4  H    2.006961   2.318994   1.516548   0.000000
     5  S    1.341878   3.313002   1.885964   1.478867   0.000000
     6  S    3.313002   1.341878   1.478867   1.885963   3.031034
                    6
     6  S    0.000000
 Symmetry turned off by external request.
 Stoichiometry    H4S2
 Framework group  C1[X(H4S2)]
 Deg. of freedom    12
 Full point group                 C1      NOp   1
 Rotational constants (GHZ):         110.3510698           3.3108545           3.2581584
 Leave Link  202 at Fri Jan  3 11:42:01 2025, MaxMem=   104857600 cpu:               0.0 elap:               0.0
 (Enter /opt/g16/l301.exe)
 Standard basis: STO-3G (5D, 7F)
 Ernie: Thresh=  0.10000D-02 Tol=  0.10000D-05 Strict=F.
    22 basis functions,    66 primitive gaussians,    22 cartesian basis functions
    18 alpha electrons       18 beta electrons
       nuclear repulsion energy        84.3614594844 Hartrees.
 IExCor=    0 DFT=F Ex=HF Corr=None ExCW=0 ScaHFX=  1.000000
 ScaDFX=  1.000000  1.000000  1.000000  1.000000 ScalE2=  1.000000  1.000000
 IRadAn=      5 IRanWt=     -1 IRanGd=            0 ICorTp=0 IEmpDi=  4
 NAtoms=    6 NActive=    6 NUniq=    6 SFac= 1.00D+00 NAtFMM=   60 NAOKFM=F Big=F
 Integral buffers will be    131072 words long.
 Raffenetti 1 integral format.
 Two-electron integral symmetry is turned off.
 Leave Link  301 at Fri Jan  3 11:42:01 2025, MaxMem=   104857600 cpu:               0.0 elap:               0.0
 (Enter /opt/g16/l402.exe)
 External calculation of energy, first and second derivatives.
 Running external command "python3 -u ../pes/h4s2_pes.py R"
         input file       "/home/jhli/scratch/g16/Gau-123693.EIn"
         output file      "/home/jhli/scratch/g16/Gau-123693.EOu"
         message file     "/home/jhli/scratch/g16/Gau-123693.EMs"
         fchk file        "/home/jhli/scratch/g16/Gau-123693.EFC"
         mat. el file     "/home/jhli/scratch/g16/Gau-123693.EUF"
 initialization done
 Recovered energy= -797.866423737     dipole=      0.000000000000      0.000000000000      0.000000000000
 Energy=    -797.866424     NIter=   0.
 Dipole moment=       0.000000       0.000000       0.000000
 Leave Link  402 at Fri Jan  3 11:42:01 2025, MaxMem=   104857600 cpu:               0.0 elap:               0.2
 (Enter /opt/g16/l716.exe)
 Dipole        = 0.00000000D+00 0.00000000D+00 0.00000000D+00
 -------------------------------------------------------------------
 Center     Atomic                   Forces (Hartrees/Bohr)
 Number     Number              X              Y              Z
 -------------------------------------------------------------------
      1        1           0.000460776   -0.000021844    0.000652437
      2        1          -0.000460761   -0.000021849   -0.000652420
      3        1          -0.043874701   -0.000619838   -0.001065375
      4        1           0.043874672   -0.000619693    0.001065321
      5       16           0.008954851    0.000640438   -0.021808921
      6       16          -0.008954837    0.000640414    0.021808957
 -------------------------------------------------------------------
 Cartesian Forces:  Max     0.043874701 RMS     0.016611157
 Force constants in Cartesian coordinates: 
                1             2             3             4             5 
      1  0.146602D-01
      2  0.181681D-02  0.274715D+00
      3  0.744099D-02  0.270869D-02  0.727279D-02
      4 -0.652716D-03 -0.149342D-02  0.485304D-03  0.146602D-01
      5  0.149341D-02  0.270742D-04 -0.320168D-03 -0.181780D-02  0.274715D+00
      6  0.485300D-03  0.320190D-03  0.178900D-02  0.744101D-02 -0.270921D-02
      7  0.201883D-03  0.959062D-03 -0.181305D-03 -0.225142D-02 -0.146873D-02
      8 -0.381400D-02  0.234108D-03  0.450242D-02  0.185875D-01 -0.250742D-02
      9 -0.115113D-02  0.164296D-02  0.622576D-03 -0.358889D-04  0.101785D-02
     10 -0.225137D-02  0.146873D-02 -0.132409D-02  0.201864D-03 -0.959063D-03
     11 -0.185875D-01 -0.250750D-02 -0.122317D-01  0.381401D-02  0.234112D-03
     12 -0.358668D-04 -0.101786D-02 -0.917423D-03 -0.115114D-02 -0.164296D-02
     13 -0.118182D-01 -0.197985D-02 -0.571286D-02 -0.135189D-03  0.770514D-03
     14  0.166691D-01 -0.273149D+00  0.591234D-02 -0.242199D-02  0.678585D-03
     15 -0.619670D-02 -0.294068D-02 -0.680249D-02 -0.541359D-03  0.713836D-03
     16 -0.135193D-03 -0.770517D-03 -0.707358D-03 -0.118182D-01  0.198087D-02
     17  0.242198D-02  0.678592D-03 -0.571142D-03 -0.166680D-01 -0.273149D+00
     18 -0.541367D-03 -0.713832D-03 -0.196368D-02 -0.619668D-02  0.294119D-02
                6             7             8             9            10 
      6  0.727279D-02
      7 -0.132413D-02  0.419229D-01
      8  0.122317D-01 -0.320234D-02  0.368413D-01
      9 -0.917454D-03  0.225257D-01 -0.333828D-02  0.634645D-01
     10 -0.181285D-03  0.401315D-01 -0.305682D-03  0.141778D-01  0.419230D-01
     11 -0.450241D-02  0.305844D-03  0.488648D-02 -0.144802D-02  0.320241D-02
     12  0.622586D-03  0.141778D-01  0.144804D-02 -0.162722D-01  0.225258D-01
     13 -0.707373D-03 -0.125969D-01  0.174688D-02  0.163038D-01 -0.674009D-01
     14  0.571130D-03 -0.115010D-02 -0.451057D-02 -0.776665D-04 -0.455332D-02
     15 -0.196368D-02 -0.173729D-01 -0.464572D-02 -0.875126D-02 -0.178242D-01
     16 -0.571286D-02 -0.674008D-01 -0.130112D-01 -0.518121D-01 -0.125969D-01
     17 -0.591183D-02  0.455315D-02 -0.349422D-01  0.220281D-02  0.115005D-02
     18 -0.680249D-02 -0.178241D-01 -0.101967D-01 -0.381466D-01 -0.173729D-01
               11            12            13            14            15 
     11  0.368413D-01
     12  0.333839D-02  0.634645D-01
     13  0.130110D-01 -0.518121D-01  0.159328D+00
     14 -0.349421D-01 -0.220303D-02 -0.110438D-01  0.299727D+00
     15  0.101966D-01 -0.381466D-01  0.375173D-01 -0.376347D-02  0.309157D-01
     16 -0.174689D-02  0.163038D-01 -0.673885D-01  0.250259D-02  0.440889D-02
     17 -0.451056D-02  0.777151D-04 -0.250290D-02  0.121972D-01  0.437494D-03
     18  0.464564D-02 -0.875126D-02  0.440891D-02 -0.437458D-03  0.247481D-01
               16            17            18 
     16  0.159328D+00
     17  0.110433D-01  0.299727D+00
     18  0.375172D-01  0.376309D-02  0.309156D-01
 Leave Link  716 at Fri Jan  3 11:42:01 2025, MaxMem=   104857600 cpu:               0.0 elap:               0.0
 (Enter /opt/g16/l123.exe)
 IRC-IRC-IRC-IRC-IRC-IRC-IRC-IRC-IRC-IRC-IRC-IRC-IRC-IRC-IRC-IRC-IRC-IRC
 Pt  6 Step number   1 out of a maximum of  20
 Point Number:   6          Path Number:   1
                    CURRENT STRUCTURE
                Cartesian Coordinates (Ang):                
 ---------------------------------------------------------------------
 Center     Atomic                     Coordinates (Angstroms)
 Number     Number                        X           Y           Z
 ---------------------------------------------------------------------
      1          1                    1.513575    1.302475    0.002791
      2          1                   -1.513580    1.302468   -0.002793
      3          1                   -0.224291   -0.052855    0.724343
      4          1                    0.224291   -0.052855   -0.724342
      5         16                    1.515513   -0.039388   -0.003501
      6         16                   -1.515513   -0.039394    0.003502
 ---------------------------------------------------------------------
   CHANGE IN THE REACTION COORDINATE =    0.10074
   NET REACTION COORDINATE UP TO THIS POINT =    0.60444
  # OF POINTS ALONG THE PATH =   6
  # OF STEPS =   1

 Calculating another point on the path.
 Point Number  7 in FORWARD path direction.
 Using LQA Reaction Path Following.
   LQA: T_Est iteration completed in    2 iterations.
 IRC-IRC-IRC-IRC-IRC-IRC-IRC-IRC-IRC-IRC-IRC-IRC-IRC-IRC-IRC-IRC-IRC-IRC
 Leave Link  123 at Fri Jan  3 11:42:01 2025, MaxMem=   104857600 cpu:               0.0 elap:               0.0
 (Enter /opt/g16/l202.exe)
                          Input orientation:                          
 ---------------------------------------------------------------------
 Center     Atomic      Atomic             Coordinates (Angstroms)
 Number     Number       Type             X           Y           Z
 ---------------------------------------------------------------------
      1          1           0        1.514022    1.302448    0.003372
      2          1           0       -1.514027    1.302441   -0.003375
      3          1           0       -0.261642   -0.053443    0.723728
      4          1           0        0.261642   -0.053443   -0.723727
      5         16           0        1.515806   -0.039368   -0.004086
      6         16           0       -1.515806   -0.039374    0.004086
 ---------------------------------------------------------------------
                    Distance matrix (angstroms):
                    1          2          3          4          5
     1  H    0.000000
     2  H    3.028057   0.000000
     3  H    2.347410   1.983827   0.000000
     4  H    1.983827   2.347409   1.539141   0.000000
     5  S    1.341838   3.313660   1.920738   1.446033   0.000000
     6  S    3.313660   1.341838   1.446033   1.920737   3.031623
                    6
     6  S    0.000000
 Symmetry turned off by external request.
 Stoichiometry    H4S2
 Framework group  C1[X(H4S2)]
 Deg. of freedom    12
 Full point group                 C1      NOp   1
 Rotational constants (GHZ):         110.4149337           3.3088034           3.2561212
 Leave Link  202 at Fri Jan  3 11:42:01 2025, MaxMem=   104857600 cpu:               0.0 elap:               0.0
 (Enter /opt/g16/l301.exe)
 Standard basis: STO-3G (5D, 7F)
 Ernie: Thresh=  0.10000D-02 Tol=  0.10000D-05 Strict=F.
    22 basis functions,    66 primitive gaussians,    22 cartesian basis functions
    18 alpha electrons       18 beta electrons
       nuclear repulsion energy        84.4450335749 Hartrees.
 IExCor=    0 DFT=F Ex=HF Corr=None ExCW=0 ScaHFX=  1.000000
 ScaDFX=  1.000000  1.000000  1.000000  1.000000 ScalE2=  1.000000  1.000000
 IRadAn=      5 IRanWt=     -1 IRanGd=            0 ICorTp=0 IEmpDi=  4
 NAtoms=    6 NActive=    6 NUniq=    6 SFac= 1.00D+00 NAtFMM=   60 NAOKFM=F Big=F
 Integral buffers will be    131072 words long.
 Raffenetti 1 integral format.
 Two-electron integral symmetry is turned off.
 Leave Link  301 at Fri Jan  3 11:42:01 2025, MaxMem=   104857600 cpu:               0.0 elap:               0.0
 (Enter /opt/g16/l402.exe)
 External calculation of energy, first and second derivatives.
 Running external command "python3 -u ../pes/h4s2_pes.py R"
         input file       "/home/jhli/scratch/g16/Gau-123693.EIn"
         output file      "/home/jhli/scratch/g16/Gau-123693.EOu"
         message file     "/home/jhli/scratch/g16/Gau-123693.EMs"
         fchk file        "/home/jhli/scratch/g16/Gau-123693.EFC"
         mat. el file     "/home/jhli/scratch/g16/Gau-123693.EUF"
 initialization done
 Recovered energy= -797.872604924     dipole=      0.000000000000      0.000000000000      0.000000000000
 Energy=    -797.872605     NIter=   0.
 Dipole moment=       0.000000       0.000000       0.000000
 Leave Link  402 at Fri Jan  3 11:42:02 2025, MaxMem=   104857600 cpu:               0.0 elap:               0.2
 (Enter /opt/g16/l716.exe)
 Dipole        = 0.00000000D+00 0.00000000D+00 0.00000000D+00
 -------------------------------------------------------------------
 Center     Atomic                   Forces (Hartrees/Bohr)
 Number     Number              X              Y              Z
 -------------------------------------------------------------------
      1        1           0.000595254   -0.000050936    0.000704718
      2        1          -0.000595238   -0.000050941   -0.000704702
      3        1          -0.042204250   -0.000768836    0.000055112
      4        1           0.042204220   -0.000768697   -0.000055162
      5       16           0.013522614    0.000818344   -0.020890942
      6       16          -0.013522599    0.000818300    0.020890977
 -------------------------------------------------------------------
 Cartesian Forces:  Max     0.042204250 RMS     0.016338801
 Force constants in Cartesian coordinates: 
                1             2             3             4             5 
      1  0.152509D-01
      2  0.203071D-02  0.275357D+00
      3  0.844032D-02  0.316136D-02  0.755799D-02
      4 -0.740968D-03 -0.135482D-02  0.490651D-03  0.152509D-01
      5  0.135482D-02  0.532716D-04 -0.332862D-03 -0.203171D-02  0.275357D+00
      6  0.490642D-03  0.332876D-03  0.159098D-02  0.844034D-02 -0.316186D-02
      7  0.319710D-03  0.767511D-03 -0.318760D-03 -0.240880D-02 -0.154561D-02
      8 -0.319762D-02  0.240926D-03  0.394930D-02  0.198639D-01 -0.287940D-02
      9 -0.111487D-02  0.147640D-02  0.558572D-03 -0.229546D-03  0.792231D-03
     10 -0.240873D-02  0.154561D-02 -0.132087D-02  0.319685D-03 -0.767518D-03
     11 -0.198639D-01 -0.287948D-02 -0.129471D-01  0.319763D-02  0.240912D-03
     12 -0.229510D-03 -0.792229D-03 -0.961346D-03 -0.111487D-02 -0.147641D-02
     13 -0.124105D-01 -0.208887D-02 -0.660761D-02 -0.599830D-05  0.899789D-03
     14  0.173471D-01 -0.273423D+00  0.675890D-02 -0.232879D-02  0.649796D-03
     15 -0.702970D-02 -0.348684D-02 -0.706920D-02 -0.555489D-03  0.692068D-03
     16 -0.600785D-05 -0.899802D-03 -0.683106D-03 -0.124105D-01  0.208988D-02
     17  0.232879D-02  0.649802D-03 -0.588994D-03 -0.173461D-01 -0.273423D+00
     18 -0.555475D-03 -0.692074D-03 -0.167629D-02 -0.702969D-02  0.348735D-02
                6             7             8             9            10 
      6  0.755801D-02
      7 -0.132091D-02  0.750639D-01
      8  0.129471D-01 -0.367102D-02  0.359994D-01
      9 -0.961373D-03  0.357498D-01 -0.345736D-02  0.681219D-01
     10 -0.318738D-03  0.290035D-01 -0.382447D-03  0.140533D-01  0.750640D-01
     11 -0.394930D-02  0.382578D-03  0.449635D-02 -0.109890D-02  0.367123D-02
     12  0.558590D-03  0.140533D-01  0.109893D-02 -0.151285D-01  0.357499D-01
     13 -0.683107D-03 -0.138626D-01  0.142095D-02  0.147044D-01 -0.881128D-01
     14  0.588991D-03 -0.101434D-02 -0.300004D-02 -0.227628D-03 -0.507882D-02
     15 -0.167631D-02 -0.118007D-01 -0.399956D-02 -0.743963D-02 -0.363615D-01
     16 -0.660760D-02 -0.881127D-01 -0.140327D-01 -0.631560D-01 -0.138626D-01
     17 -0.675839D-02  0.507854D-02 -0.348562D-01  0.251443D-02  0.101430D-02
     18 -0.706918D-02 -0.363614D-01 -0.105368D-01 -0.451511D-01 -0.118008D-01
               11            12            13            14            15 
     11  0.359995D-01
     12  0.345754D-02  0.681219D-01
     13  0.140324D-01 -0.631561D-01  0.177606D+00
     14 -0.348561D-01 -0.251469D-02 -0.115933D-01  0.299261D+00
     15  0.105367D-01 -0.451511D-01  0.512872D-01 -0.417389D-02  0.400382D-01
     16 -0.142096D-02  0.147044D-01 -0.632217D-01  0.267088D-02  0.445253D-02
     17 -0.300002D-02  0.227688D-03 -0.267118D-02  0.113701D-01  0.429697D-03
     18  0.399952D-02 -0.743963D-02  0.445256D-02 -0.429661D-03  0.212975D-01
               16            17            18 
     16  0.177606D+00
     17  0.115929D-01  0.299261D+00
     18  0.512871D-01  0.417356D-02  0.400382D-01
 Leave Link  716 at Fri Jan  3 11:42:02 2025, MaxMem=   104857600 cpu:               0.0 elap:               0.0
 (Enter /opt/g16/l123.exe)
 IRC-IRC-IRC-IRC-IRC-IRC-IRC-IRC-IRC-IRC-IRC-IRC-IRC-IRC-IRC-IRC-IRC-IRC
 Reaction path inflection point has been passed.
   Previous lowest Hessian eigenvalue=   -0.0061125801
   Current lowest Hessian eigenvalue =    0.0003764949
 Pt  7 Step number   1 out of a maximum of  20
 Point Number:   7          Path Number:   1
                    CURRENT STRUCTURE
                Cartesian Coordinates (Ang):                
 ---------------------------------------------------------------------
 Center     Atomic                     Coordinates (Angstroms)
 Number     Number                        X           Y           Z
 ---------------------------------------------------------------------
      1          1                    1.514022    1.302448    0.003372
      2          1                   -1.514027    1.302441   -0.003375
      3          1                   -0.261642   -0.053443    0.723728
      4          1                    0.261642   -0.053443   -0.723727
      5         16                    1.515806   -0.039368   -0.004086
      6         16                   -1.515806   -0.039374    0.004086
 ---------------------------------------------------------------------
   CHANGE IN THE REACTION COORDINATE =    0.10074
   NET REACTION COORDINATE UP TO THIS POINT =    0.70518
  # OF POINTS ALONG THE PATH =   7
  # OF STEPS =   1

 Calculating another point on the path.
 Point Number  8 in FORWARD path direction.
 Using LQA Reaction Path Following.
   LQA: T_Est iteration completed in    2 iterations.
 IRC-IRC-IRC-IRC-IRC-IRC-IRC-IRC-IRC-IRC-IRC-IRC-IRC-IRC-IRC-IRC-IRC-IRC
 Leave Link  123 at Fri Jan  3 11:42:02 2025, MaxMem=   104857600 cpu:               0.0 elap:               0.0
 (Enter /opt/g16/l202.exe)
                          Input orientation:                          
 ---------------------------------------------------------------------
 Center     Atomic      Atomic             Coordinates (Angstroms)
 Number     Number       Type             X           Y           Z
 ---------------------------------------------------------------------
      1          1           0        1.514632    1.302388    0.004038
      2          1           0       -1.514637    1.302381   -0.004041
      3          1           0       -0.298929   -0.054213    0.724440
      4          1           0        0.298929   -0.054213   -0.724439
      5         16           0        1.516272   -0.039342   -0.004666
      6         16           0       -1.516272   -0.039348    0.004666
 ---------------------------------------------------------------------
                    Distance matrix (angstroms):
                    1          2          3          4          5
     1  H    0.000000
     2  H    3.029280   0.000000
     3  H    2.376625   1.961882   0.000000
     4  H    1.961882   2.376624   1.567381   0.000000
     5  S    1.341759   3.314609   1.956213   1.414291   0.000000
     6  S    3.314609   1.341759   1.414291   1.956213   3.032558
[...]
  # OF POINTS ALONG THE PATH = 183
  # OF STEPS =   1

 Calculating another point on the path.
 Point Number 92 in REVERSE path direction.
 Using LQA Reaction Path Following.
   LQA: T_Est iteration completed in    4 iterations.
 IRC-IRC-IRC-IRC-IRC-IRC-IRC-IRC-IRC-IRC-IRC-IRC-IRC-IRC-IRC-IRC-IRC-IRC
 Leave Link  123 at Fri Jan  3 11:42:44 2025, MaxMem=   104857600 cpu:               0.0 elap:               0.0
 (Enter /opt/g16/l202.exe)
                          Input orientation:                          
 ---------------------------------------------------------------------
 Center     Atomic      Atomic             Coordinates (Angstroms)
 Number     Number       Type             X           Y           Z
 ---------------------------------------------------------------------
      1          1           0        1.980128    1.301781    0.036925
      2          1           0       -1.980132    1.301773   -0.036927
      3          1           0        0.982063   -0.124419    0.875637
      4          1           0       -0.982063   -0.124424   -0.875637
      5         16           0        2.008938   -0.037274    0.018548
      6         16           0       -2.008938   -0.037282   -0.018548
 ---------------------------------------------------------------------
                    Distance matrix (angstroms):
                    1          2          3          4          5
     1  H    0.000000
     2  H    3.960949   0.000000
     3  H    1.932256   3.411950   0.000000
     4  H    3.411950   1.932256   2.631492   0.000000
     5  S    1.339491   4.208183   1.340398   3.123019   0.000000
     6  S    4.208184   1.339491   3.123019   1.340398   4.018047
                    6
     6  S    0.000000
 Symmetry turned off by external request.
 Stoichiometry    H4S2
 Framework group  C1[X(H4S2)]
 Deg. of freedom    12
 Full point group                 C1      NOp   1
 Rotational constants (GHZ):         100.3168157           1.8753494           1.8613020
 Leave Link  202 at Fri Jan  3 11:42:44 2025, MaxMem=   104857600 cpu:               0.0 elap:               0.0
 (Enter /opt/g16/l301.exe)
 Standard basis: STO-3G (5D, 7F)
 Ernie: Thresh=  0.10000D-02 Tol=  0.10000D-05 Strict=F.
    22 basis functions,    66 primitive gaussians,    22 cartesian basis functions
    18 alpha electrons       18 beta electrons
       nuclear repulsion energy        69.6292159702 Hartrees.
 IExCor=    0 DFT=F Ex=HF Corr=None ExCW=0 ScaHFX=  1.000000
 ScaDFX=  1.000000  1.000000  1.000000  1.000000 ScalE2=  1.000000  1.000000
 IRadAn=      5 IRanWt=     -1 IRanGd=            0 ICorTp=0 IEmpDi=  4
 NAtoms=    6 NActive=    6 NUniq=    6 SFac= 1.00D+00 NAtFMM=   60 NAOKFM=F Big=F
 Integral buffers will be    131072 words long.
 Raffenetti 1 integral format.
 Two-electron integral symmetry is turned off.
 Leave Link  301 at Fri Jan  3 11:42:44 2025, MaxMem=   104857600 cpu:               0.0 elap:               0.0
 (Enter /opt/g16/l402.exe)
 External calculation of energy, first and second derivatives.
 Running external command "python3 -u ../pes/h4s2_pes.py R"
         input file       "/home/jhli/scratch/g16/Gau-123693.EIn"
         output file      "/home/jhli/scratch/g16/Gau-123693.EOu"
         message file     "/home/jhli/scratch/g16/Gau-123693.EMs"
         fchk file        "/home/jhli/scratch/g16/Gau-123693.EFC"
         mat. el file     "/home/jhli/scratch/g16/Gau-123693.EUF"
 initialization done
 Recovered energy= -797.919909492     dipole=      0.000000000000      0.000000000000      0.000000000000
 Energy=    -797.919909     NIter=   0.
 Dipole moment=       0.000000       0.000000       0.000000
 Leave Link  402 at Fri Jan  3 11:42:44 2025, MaxMem=   104857600 cpu:               0.0 elap:               0.2
 (Enter /opt/g16/l716.exe)
 Dipole        = 0.00000000D+00 0.00000000D+00 0.00000000D+00
 -------------------------------------------------------------------
 Center     Atomic                   Forces (Hartrees/Bohr)
 Number     Number              X              Y              Z
 -------------------------------------------------------------------
      1        1           0.000050545   -0.000053441    0.000004112
      2        1          -0.000050545   -0.000053441   -0.000004112
      3        1           0.000027354    0.000030207   -0.000018764
      4        1          -0.000027354    0.000030207    0.000018764
      5       16           0.000338169    0.000022141    0.000025702
      6       16          -0.000338169    0.000022139   -0.000025702
 -------------------------------------------------------------------
 Cartesian Forces:  Max     0.000338169 RMS     0.000116881
 Force constants in Cartesian coordinates: 
                1             2             3             4             5 
      1  0.157424D-01
      2 -0.234534D-02  0.274706D+00
      3 -0.130331D-01  0.868928D-03  0.112832D-01
      4 -0.202306D-03 -0.100615D-04 -0.891381D-04  0.157424D-01
      5  0.100636D-04 -0.245832D-03  0.497798D-04  0.234437D-02  0.274706D+00
      6 -0.891378D-04 -0.497807D-04  0.106142D-03 -0.130331D-01 -0.869386D-03
      7 -0.109086D-02  0.115671D-02  0.951344D-03  0.649183D-04  0.172235D-03
      8 -0.207986D-01 -0.453831D-02  0.175083D-01  0.246814D-03 -0.483033D-05
      9  0.948676D-03 -0.861793D-03 -0.854456D-03  0.760819D-04 -0.556999D-04
     10  0.649196D-04 -0.172235D-03  0.461838D-04 -0.109093D-02 -0.115670D-02
     11 -0.246814D-03 -0.483129D-05 -0.273341D-03  0.207986D-01 -0.453827D-02
     12  0.760818D-04  0.557000D-04 -0.681935D-04  0.948641D-03  0.861802D-03
     13 -0.146556D-01  0.128195D-02  0.120563D-01  0.142937D-03 -0.889729D-04
     14  0.230596D-01 -0.270169D+00 -0.182226D-01 -0.322029D-03  0.251725D-03
     15  0.120402D-01  0.391545D-04 -0.104216D-01  0.560011D-04  0.517137D-04
     16  0.142937D-03  0.889711D-04  0.677762D-04 -0.146555D-01 -0.128099D-02
     17  0.322030D-03  0.251728D-03  0.681395D-04 -0.230586D-01 -0.270169D+00
     18  0.559999D-04 -0.517154D-04 -0.441129D-04  0.120402D-01 -0.387062D-04
                6             7             8             9            10 
      6  0.112832D-01
      7  0.461823D-04  0.160003D+00
      8  0.273342D-03  0.151371D-01  0.293464D-01
      9 -0.681938D-04 -0.132978D+00 -0.126324D-01  0.112754D+00
     10  0.951412D-03 -0.595328D-03 -0.197786D-04 -0.659642D-03  0.160003D+00
     11 -0.175083D-01  0.197741D-04  0.154772D-03  0.143542D-03 -0.151368D-01
     12 -0.854430D-03 -0.659643D-03 -0.143549D-03 -0.925643D-03 -0.132978D+00
     13  0.677757D-04 -0.158301D+00  0.571402D-02  0.132122D+00 -0.794307D-04
     14 -0.681378D-04 -0.162176D-01 -0.245652D-01  0.134611D-01  0.267319D-03
     15 -0.441125D-04  0.132482D+00 -0.480560D-02 -0.111060D+00  0.158423D-03
     16  0.120562D-01 -0.794275D-04 -0.280581D-03  0.492006D-03 -0.158301D+00
     17  0.182231D-01 -0.267318D-03 -0.392711D-03 -0.553995D-04  0.162174D-01
     18 -0.104216D-01  0.158425D-03 -0.198516D-03  0.155664D-03  0.132482D+00
               11            12            13            14            15 
     11  0.293464D-01
     12  0.126320D-01  0.112754D+00
     13  0.280583D-03  0.492004D-03  0.175592D+00
     14 -0.392709D-03  0.554049D-04 -0.698769D-02  0.294501D+00
     15  0.198516D-03  0.155662D-03 -0.144251D+00  0.464494D-02  0.121206D+00
     16 -0.571431D-02  0.132122D+00 -0.270058D-02  0.201629D-03 -0.485480D-03
     17 -0.245652D-01 -0.134608D-01 -0.201641D-03  0.373589D-03 -0.127214D-03
     18  0.480596D-02 -0.111060D+00 -0.485480D-03  0.127213D-03  0.162255D-03
               16            17            18 
     16  0.175592D+00
     17  0.698704D-02  0.294501D+00
     18 -0.144251D+00 -0.464574D-02  0.121206D+00
 Leave Link  716 at Fri Jan  3 11:42:44 2025, MaxMem=   104857600 cpu:               0.0 elap:               0.0
 (Enter /opt/g16/l123.exe)
 IRC-IRC-IRC-IRC-IRC-IRC-IRC-IRC-IRC-IRC-IRC-IRC-IRC-IRC-IRC-IRC-IRC-IRC
 Pt184 Step number   1 out of a maximum of  20
 Point Number:  92          Path Number:   2
                    CURRENT STRUCTURE
                Cartesian Coordinates (Ang):                
 ---------------------------------------------------------------------
 Center     Atomic                     Coordinates (Angstroms)
 Number     Number                        X           Y           Z
 ---------------------------------------------------------------------
      1          1                    1.980128    1.301781    0.036925
      2          1                   -1.980132    1.301773   -0.036927
      3          1                    0.982063   -0.124419    0.875637
      4          1                   -0.982063   -0.124424   -0.875637
      5         16                    2.008938   -0.037274    0.018548
      6         16                   -2.008938   -0.037282   -0.018548
 ---------------------------------------------------------------------
   CHANGE IN THE REACTION COORDINATE =    0.10071
   NET REACTION COORDINATE UP TO THIS POINT =    9.26744
  # OF POINTS ALONG THE PATH = 184
  # OF STEPS =   1

 PES minimum detected on this side of the pathway.
    Magnitude of the gradient =      0.0001483
 Calculation of REVERSE path complete.
 Reaction path calculation complete.
 
 Energies reported relative to the TS energy of        -797.842477
 --------------------------------------------------------------------------
    Summary of reaction path following
 --------------------------------------------------------------------------
                        Energy    RxCoord
   1                   -0.07743  -9.26744
   2                   -0.07742  -9.16673
   3                   -0.07741  -9.06602
   4                   -0.07739  -8.96529
   5                   -0.07737  -8.86457
   6                   -0.07735  -8.76384
   7                   -0.07733  -8.66310
   8                   -0.07731  -8.56236
   9                   -0.07729  -8.46163
  10                   -0.07726  -8.36089
  11                   -0.07723  -8.26015
  12                   -0.07720  -8.15941
  13                   -0.07717  -8.05867
  14                   -0.07713  -7.95792
  15                   -0.07709  -7.85718
  16                   -0.07705  -7.75644
  17                   -0.07701  -7.65570
  18                   -0.07696  -7.55496
  19                   -0.07691  -7.45421
  20                   -0.07685  -7.35347
  21                   -0.07679  -7.25273
  22                   -0.07673  -7.15199
  23                   -0.07666  -7.05124
  24                   -0.07659  -6.95050
  25                   -0.07652  -6.84976
  26                   -0.07644  -6.74901
  27                   -0.07635  -6.64827
  28                   -0.07626  -6.54753
  29                   -0.07617  -6.44678
  30                   -0.07606  -6.34604
  31                   -0.07596  -6.24530
  32                   -0.07584  -6.14455
  33                   -0.07572  -6.04381
  34                   -0.07560  -5.94307
  35                   -0.07547  -5.84232
  36                   -0.07533  -5.74158
  37                   -0.07518  -5.64084
  38                   -0.07502  -5.54009
  39                   -0.07486  -5.43935
  40                   -0.07469  -5.33861
  41                   -0.07451  -5.23786
  42                   -0.07432  -5.13712
  43                   -0.07413  -5.03638
  44                   -0.07392  -4.93563
  45                   -0.07371  -4.83489
  46                   -0.07348  -4.73415
  47                   -0.07325  -4.63340
  48                   -0.07300  -4.53266
  49                   -0.07274  -4.43192
  50                   -0.07248  -4.33117
  51                   -0.07220  -4.23043
  52                   -0.07191  -4.12969
  53                   -0.07160  -4.02895
  54                   -0.07129  -3.92820
  55                   -0.07096  -3.82746
  56                   -0.07061  -3.72672
  57                   -0.07025  -3.62598
  58                   -0.06988  -3.52524
  59                   -0.06949  -3.42449
  60                   -0.06908  -3.32375
  61                   -0.06865  -3.22301
  62                   -0.06820  -3.12227
  63                   -0.06774  -3.02153
  64                   -0.06724  -2.92079
  65                   -0.06673  -2.82005
  66                   -0.06618  -2.71932
  67                   -0.06561  -2.61858
  68                   -0.06500  -2.51784
  69                   -0.06435  -2.41711
  70                   -0.06366  -2.31637
  71                   -0.06293  -2.21564
  72                   -0.06213  -2.11491
  73                   -0.06128  -2.01418
  74                   -0.06034  -1.91345
  75                   -0.05932  -1.81272
  76                   -0.05819  -1.71199
  77                   -0.05694  -1.61127
  78                   -0.05553  -1.51054
  79                   -0.05394  -1.40981
  80                   -0.05213  -1.30908
  81                   -0.05006  -1.20837
  82                   -0.04765  -1.10776
  83                   -0.04467  -1.00726
  84                   -0.04078  -0.90663
  85                   -0.03586  -0.80592
  86                   -0.03013  -0.70518
  87                   -0.02395  -0.60444
  88                   -0.01775  -0.50370
  89                   -0.01197  -0.40296
  90                   -0.00701  -0.30222
  91                   -0.00321  -0.20149
  92                   -0.00082  -0.10076
  93                    0.00000   0.00000
  94                   -0.00082   0.10076
  95                   -0.00321   0.20149
  96                   -0.00701   0.30222
  97                   -0.01197   0.40296
  98                   -0.01775   0.50370
  99                   -0.02395   0.60444
 100                   -0.03013   0.70518
 101                   -0.03586   0.80592
 102                   -0.04078   0.90663
 103                   -0.04467   1.00726
 104                   -0.04765   1.10776
 105                   -0.05006   1.20837
 106                   -0.05213   1.30908
 107                   -0.05394   1.40981
 108                   -0.05553   1.51054
 109                   -0.05694   1.61127
 110                   -0.05819   1.71199
 111                   -0.05932   1.81272
 112                   -0.06034   1.91345
 113                   -0.06128   2.01418
 114                   -0.06213   2.11491
 115                   -0.06293   2.21564
 116                   -0.06366   2.31637
 117                   -0.06435   2.41711
 118                   -0.06500   2.51784
 119                   -0.06561   2.61858
 120                   -0.06618   2.71932
 121                   -0.06673   2.82005
 122                   -0.06724   2.92079
 123                   -0.06774   3.02153
 124                   -0.06820   3.12227
 125                   -0.06865   3.22301
 126                   -0.06908   3.32375
 127                   -0.06949   3.42449
 128                   -0.06988   3.52524
 129                   -0.07025   3.62598
 130                   -0.07061   3.72672
 131                   -0.07096   3.82746
 132                   -0.07129   3.92820
 133                   -0.07160   4.02895
 134                   -0.07191   4.12969
 135                   -0.07220   4.23043
 136                   -0.07248   4.33117
 137                   -0.07274   4.43192
 138                   -0.07300   4.53266
 139                   -0.07325   4.63340
 140                   -0.07348   4.73415
 141                   -0.07371   4.83489
 142                   -0.07392   4.93563
 143                   -0.07413   5.03638
 144                   -0.07432   5.13712
 145                   -0.07451   5.23786
 146                   -0.07469   5.33861
 147                   -0.07486   5.43935
 148                   -0.07502   5.54009
 149                   -0.07518   5.64084
 150                   -0.07533   5.74158
 151                   -0.07547   5.84232
 152                   -0.07560   5.94307
 153                   -0.07572   6.04381
 154                   -0.07584   6.14455
 155                   -0.07596   6.24530
 156                   -0.07606   6.34604
 157                   -0.07617   6.44678
 158                   -0.07626   6.54753
 159                   -0.07635   6.64827
 160                   -0.07644   6.74901
 161                   -0.07652   6.84976
 162                   -0.07659   6.95050
 163                   -0.07666   7.05124
 164                   -0.07673   7.15199
 165                   -0.07679   7.25273
 166                   -0.07685   7.35347
 167                   -0.07691   7.45421
 168                   -0.07696   7.55496
 169                   -0.07701   7.65570
 170                   -0.07705   7.75644
 171                   -0.07709   7.85718
 172                   -0.07713   7.95792
 173                   -0.07717   8.05867
 174                   -0.07720   8.15941
 175                   -0.07723   8.26015
 176                   -0.07726   8.36089
 177                   -0.07729   8.46163
 178                   -0.07731   8.56236
 179                   -0.07733   8.66310
 180                   -0.07735   8.76384
 181                   -0.07737   8.86457
 182                   -0.07739   8.96529
 183                   -0.07741   9.06602
 184                   -0.07742   9.16673
 185                   -0.07743   9.26744
 --------------------------------------------------------------------------
 
 Total number of points:                  184
 Total number of gradient calculations:   185
 Total number of Hessian calculations:    185
 IRC-IRC-IRC-IRC-IRC-IRC-IRC-IRC-IRC-IRC-IRC-IRC-IRC-IRC-IRC-IRC-IRC-IRC
 Leave Link  123 at Fri Jan  3 11:42:44 2025, MaxMem=   104857600 cpu:               0.0 elap:               0.0
 (Enter /opt/g16/l202.exe)
                          Input orientation:                          
 ---------------------------------------------------------------------
 Center     Atomic      Atomic             Coordinates (Angstroms)
 Number     Number       Type             X           Y           Z
 ---------------------------------------------------------------------
      1          1           0        1.980128    1.301781    0.036925
      2          1           0       -1.980132    1.301773   -0.036927
      3          1           0        0.982063   -0.124419    0.875637
      4          1           0       -0.982063   -0.124424   -0.875637
      5         16           0        2.008938   -0.037274    0.018548
      6         16           0       -2.008938   -0.037282   -0.018548
 ---------------------------------------------------------------------
                    Distance matrix (angstroms):
                    1          2          3          4          5
     1  H    0.000000
     2  H    3.960949   0.000000
     3  H    1.932256   3.411950   0.000000
     4  H    3.411950   1.932256   2.631492   0.000000
     5  S    1.339491   4.208183   1.340398   3.123019   0.000000
     6  S    4.208184   1.339491   3.123019   1.340398   4.018047
                    6
     6  S    0.000000
 Symmetry turned off by external request.
 Stoichiometry    H4S2
 Framework group  C1[X(H4S2)]
 Deg. of freedom    12
 Full point group                 C1      NOp   1
 Rotational constants (GHZ):         100.3168157           1.8753494           1.8613020
 Leave Link  202 at Fri Jan  3 11:42:44 2025, MaxMem=   104857600 cpu:               0.0 elap:               0.0
 (Enter /opt/g16/l601.exe)
 Leave Link  601 at Fri Jan  3 11:42:44 2025, MaxMem=   104857600 cpu:               0.0 elap:               0.0
 (Enter /opt/g16/l9999.exe)

 This type of calculation cannot be archived.


 "PERFECTION IS NOT AN ACCIDENT"
         --  EAGLE ELECTRIC MANUFACTURING CO.,INC. NY
 Job cpu time:       0 days  0 hours  0 minutes 11.2 seconds.
 Elapsed time:       0 days  0 hours  0 minutes 42.6 seconds.
 File lengths (MBytes):  RWF=      6 Int=      0 D2E=      0 Chk=      2 Scr=      1
 Normal termination of Gaussian 16 at Fri Jan  3 11:42:44 2025.
